REMARK SMILES O=C(NC12CC3CC(CC(C3)C1)C2)c1nn(CCCCCF)c2ccccc12
REMARK SMILES IDX 18 1 17 2 16 3 14 4 15 5 28 6 27 7 23 8 26 9 24 10 25 11
REMARK SMILES IDX 2 12 1 13 3 14 4 16 13 17 12 18 5 19 8 20 10 21 6 22 7 23
REMARK SMILES IDX 9 24 11 25 19 26 20 27 21 28 22 29
REMARK H PARENT 3 15
ROOT
ATOM      1  C   UNL     1      31.102   1.327   6.461  1.00  0.00     0.024 C 
ENDROOT
BRANCH   1   2
ATOM      2  C   UNL     1      30.664   1.774   5.130  1.00  0.00     0.145 C 
BRANCH   2   3
ATOM      3  N   UNL     1      29.322   2.429   5.239  1.00  0.00    -0.264 N 
ATOM      4  C   UNL     1      27.145   2.653   5.274  1.00  0.00     0.158 A 
ATOM      5  N   UNL     1      28.154   1.799   5.131  1.00  0.00    -0.166 NA
ATOM      6  C   UNL     1      27.747   3.895   5.486  1.00  0.00     0.033 A 
ATOM      7  C   UNL     1      27.253   5.166   5.701  1.00  0.00     0.013 A 
ATOM      8  C   UNL     1      29.126   3.743   5.462  1.00  0.00     0.069 A 
ATOM      9  C   UNL     1      28.086   6.261   5.889  1.00  0.00     0.001 A 
ATOM     10  C   UNL     1      29.991   4.800   5.643  1.00  0.00     0.028 A 
ATOM     11  C   UNL     1      29.463   6.055   5.856  1.00  0.00     0.002 A 
BRANCH   4  12
ATOM     12  C   UNL     1      25.703   2.419   5.232  1.00  0.00     0.272 C 
ATOM     13  O   UNL     1      24.895   3.391   5.396  1.00  0.00    -0.267 OA
ATOM     14  N   UNL     1      25.196   1.128   5.012  1.00  0.00    -0.345 N 
ATOM     15  H   UNL     1      25.913   0.354   4.881  1.00  0.00     0.164 HD
BRANCH  14  16
ATOM     16  C   UNL     1      23.795   0.786   4.951  1.00  0.00     0.041 C 
ATOM     17  C   UNL     1      23.620  -0.703   4.698  1.00  0.00     0.032 C 
ATOM     18  C   UNL     1      23.223   1.071   6.325  1.00  0.00     0.032 C 
ATOM     19  C   UNL     1      23.020   1.587   3.934  1.00  0.00     0.032 C 
ATOM     20  C   UNL     1      22.177  -1.076   4.779  1.00  0.00    -0.008 C 
ATOM     21  C   UNL     1      21.766   0.684   6.441  1.00  0.00    -0.008 C 
ATOM     22  C   UNL     1      21.568   1.151   4.058  1.00  0.00    -0.008 C 
ATOM     23  C   UNL     1      21.452  -0.296   3.704  1.00  0.00     0.007 C 
ATOM     24  C   UNL     1      21.601  -0.782   6.142  1.00  0.00     0.007 C 
ATOM     25  C   UNL     1      21.009   1.486   5.420  1.00  0.00     0.007 C 
ENDBRANCH  14  16
ENDBRANCH   4  12
ENDBRANCH   2   3
ENDBRANCH   1   2
BRANCH   1  26
ATOM     26  C   UNL     1      32.443   0.701   6.489  1.00  0.00     0.005 C 
BRANCH  26  27
ATOM     27  C   UNL     1      32.770  -0.547   5.814  1.00  0.00     0.034 C 
BRANCH  27  28
ATOM     28  C   UNL     1      32.647  -0.712   4.357  1.00  0.00     0.214 C 
ATOM     29  F   UNL     1      33.140  -2.024   4.073  1.00  0.00    -0.251 F 
ENDBRANCH  27  28
ENDBRANCH  26  27
ENDBRANCH   1  26
TORSDOF 7
