REMARK SMILES O=C(NC12CC3CC(CC(C3)C1)C2)c1nn(CCCCCF)c2ccccc12
REMARK SMILES IDX 18 1 17 2 16 3 14 4 15 5 28 6 27 7 23 8 26 9 24 10 25 11
REMARK SMILES IDX 2 12 1 13 3 14 4 16 13 17 12 18 5 19 8 20 10 21 6 22 7 23
REMARK SMILES IDX 9 24 11 25 19 26 20 27 21 28 22 29
REMARK H PARENT 3 15
ROOT
ATOM      1  C   UNL     1      32.090   2.219   5.792  1.00  0.00     0.024 C 
ENDROOT
BRANCH   1   2
ATOM      2  C   UNL     1      31.367   2.502   4.523  1.00  0.00     0.145 C 
BRANCH   2   3
ATOM      3  N   UNL     1      29.969   2.825   4.700  1.00  0.00    -0.264 N 
ATOM      4  C   UNL     1      27.783   2.607   4.898  1.00  0.00     0.158 A 
ATOM      5  N   UNL     1      28.968   1.960   4.707  1.00  0.00    -0.166 NA
ATOM      6  C   UNL     1      28.125   3.916   5.008  1.00  0.00     0.033 A 
ATOM      7  C   UNL     1      27.401   5.048   5.214  1.00  0.00     0.013 A 
ATOM      8  C   UNL     1      29.511   4.074   4.884  1.00  0.00     0.069 A 
ATOM      9  C   UNL     1      28.012   6.275   5.294  1.00  0.00     0.001 A 
ATOM     10  C   UNL     1      30.123   5.301   4.963  1.00  0.00     0.028 A 
ATOM     11  C   UNL     1      29.376   6.447   5.173  1.00  0.00     0.002 A 
BRANCH   4  12
ATOM     12  C   UNL     1      26.541   1.878   4.957  1.00  0.00     0.272 C 
ATOM     13  O   UNL     1      26.667   0.599   5.035  1.00  0.00    -0.267 OA
ATOM     14  N   UNL     1      25.235   2.352   4.939  1.00  0.00    -0.345 N 
ATOM     15  H   UNL     1      25.050   3.358   4.858  1.00  0.00     0.164 HD
BRANCH  14  16
ATOM     16  C   UNL     1      24.086   1.469   5.011  1.00  0.00     0.041 C 
ATOM     17  C   UNL     1      24.012   0.627   6.229  1.00  0.00     0.032 C 
ATOM     18  C   UNL     1      24.055   0.645   3.746  1.00  0.00     0.032 C 
ATOM     19  C   UNL     1      22.804   2.319   4.964  1.00  0.00     0.032 C 
ATOM     20  C   UNL     1      22.758  -0.199   6.178  1.00  0.00    -0.008 C 
ATOM     21  C   UNL     1      22.894  -0.325   3.734  1.00  0.00    -0.008 C 
ATOM     22  C   UNL     1      21.605   1.442   4.819  1.00  0.00    -0.008 C 
ATOM     23  C   UNL     1      21.492   0.577   6.072  1.00  0.00     0.007 C 
ATOM     24  C   UNL     1      22.870  -1.129   4.991  1.00  0.00     0.007 C 
ATOM     25  C   UNL     1      21.634   0.511   3.649  1.00  0.00     0.007 C 
ENDBRANCH  14  16
ENDBRANCH   4  12
ENDBRANCH   2   3
ENDBRANCH   1   2
BRANCH   1  26
ATOM     26  C   UNL     1      31.545   1.064   6.582  1.00  0.00     0.005 C 
BRANCH  26  27
ATOM     27  C   UNL     1      31.579  -0.236   5.825  1.00  0.00     0.034 C 
BRANCH  27  28
ATOM     28  C   UNL     1      31.006  -1.319   6.723  1.00  0.00     0.214 C 
ATOM     29  F   UNL     1      29.701  -1.021   7.076  1.00  0.00    -0.251 F 
ENDBRANCH  27  28
ENDBRANCH  26  27
ENDBRANCH   1  26
TORSDOF 7
