REMARK SMILES O=C(NC12CC3CC(CC(C3)C1)C2)c1nn(CCCCCF)c2ccccc12
REMARK SMILES IDX 18 1 17 2 16 3 14 4 15 5 28 6 27 7 23 8 26 9 24 10 25 11
REMARK SMILES IDX 2 12 1 13 3 14 4 16 13 17 12 18 5 19 8 20 10 21 6 22 7 23
REMARK SMILES IDX 9 24 11 25 19 26 20 27 21 28 22 29
REMARK H PARENT 3 15
ROOT
ATOM      1  C   UNL     1      30.488   0.926   5.125  1.00  0.00     0.024 C 
ENDROOT
BRANCH   1   2
ATOM      2  C   UNL     1      29.875   1.211   6.472  1.00  0.00     0.145 C 
BRANCH   2   3
ATOM      3  N   UNL     1      28.580   1.812   6.216  1.00  0.00    -0.264 N 
ATOM      4  C   UNL     1      26.412   2.013   5.848  1.00  0.00     0.158 A 
ATOM      5  N   UNL     1      27.453   1.151   6.083  1.00  0.00    -0.166 NA
ATOM      6  C   UNL     1      26.999   3.244   5.850  1.00  0.00     0.033 A 
ATOM      7  C   UNL     1      26.510   4.492   5.666  1.00  0.00     0.013 A 
ATOM      8  C   UNL     1      28.375   3.132   6.082  1.00  0.00     0.069 A 
ATOM      9  C   UNL     1      27.331   5.591   5.710  1.00  0.00     0.001 A 
ATOM     10  C   UNL     1      29.201   4.233   6.127  1.00  0.00     0.028 A 
ATOM     11  C   UNL     1      28.690   5.501   5.939  1.00  0.00     0.002 A 
BRANCH   4  12
ATOM     12  C   UNL     1      25.077   1.526   5.655  1.00  0.00     0.272 C 
ATOM     13  O   UNL     1      24.971   0.250   5.504  1.00  0.00    -0.267 OA
ATOM     14  N   UNL     1      23.869   2.228   5.607  1.00  0.00    -0.345 N 
ATOM     15  H   UNL     1      23.867   3.244   5.736  1.00  0.00     0.164 HD
BRANCH  14  16
ATOM     16  C   UNL     1      22.576   1.588   5.400  1.00  0.00     0.041 C 
ATOM     17  C   UNL     1      22.315   0.636   6.513  1.00  0.00     0.032 C 
ATOM     18  C   UNL     1      21.493   2.638   5.412  1.00  0.00     0.032 C 
ATOM     19  C   UNL     1      22.530   0.938   4.037  1.00  0.00     0.032 C 
ATOM     20  C   UNL     1      20.965  -0.031   6.318  1.00  0.00    -0.008 C 
ATOM     21  C   UNL     1      20.166   1.991   5.172  1.00  0.00    -0.008 C 
ATOM     22  C   UNL     1      21.228   0.202   3.882  1.00  0.00    -0.008 C 
ATOM     23  C   UNL     1      21.053  -0.774   5.001  1.00  0.00     0.007 C 
ATOM     24  C   UNL     1      19.910   1.028   6.336  1.00  0.00     0.007 C 
ATOM     25  C   UNL     1      20.098   1.209   3.902  1.00  0.00     0.007 C 
ENDBRANCH  14  16
ENDBRANCH   4  12
ENDBRANCH   2   3
ENDBRANCH   1   2
BRANCH   1  26
ATOM     26  C   UNL     1      31.839   0.299   5.190  1.00  0.00     0.005 C 
BRANCH  26  27
ATOM     27  C   UNL     1      32.859   1.147   5.907  1.00  0.00     0.034 C 
BRANCH  27  28
ATOM     28  C   UNL     1      34.172   0.397   5.899  1.00  0.00     0.214 C 
ATOM     29  F   UNL     1      34.652   0.124   4.651  1.00  0.00    -0.251 F 
ENDBRANCH  27  28
ENDBRANCH  26  27
ENDBRANCH   1  26
TORSDOF 7
