REMARK SMILES O=C(NC12CC3CC(CC(C3)C1)C2)c1nn(CCCCCF)c2ccccc12
REMARK SMILES IDX 18 1 17 2 16 3 14 4 15 5 28 6 27 7 23 8 26 9 24 10 25 11
REMARK SMILES IDX 2 12 1 13 3 14 4 16 13 17 12 18 5 19 8 20 10 21 6 22 7 23
REMARK SMILES IDX 9 24 11 25 19 26 20 27 21 28 22 29
REMARK H PARENT 3 15
ROOT
ATOM      1  C   UNL     1      30.580   1.354   6.341  1.00  0.00     0.024 C 
ENDROOT
BRANCH   1   2
ATOM      2  C   UNL     1      30.142   1.211   4.935  1.00  0.00     0.145 C 
BRANCH   2   3
ATOM      3  N   UNL     1      28.785   1.814   4.753  1.00  0.00    -0.264 N 
ATOM      4  C   UNL     1      26.607   1.979   4.668  1.00  0.00     0.158 A 
ATOM      5  N   UNL     1      27.655   1.155   4.903  1.00  0.00    -0.166 NA
ATOM      6  C   UNL     1      27.164   3.189   4.366  1.00  0.00     0.033 A 
ATOM      7  C   UNL     1      26.653   4.408   4.052  1.00  0.00     0.013 A 
ATOM      8  C   UNL     1      28.559   3.093   4.416  1.00  0.00     0.069 A 
ATOM      9  C   UNL     1      27.465   5.486   3.796  1.00  0.00     0.001 A 
ATOM     10  C   UNL     1      29.377   4.171   4.160  1.00  0.00     0.028 A 
ATOM     11  C   UNL     1      28.843   5.405   3.841  1.00  0.00     0.002 A 
BRANCH   4  12
ATOM     12  C   UNL     1      25.244   1.515   4.782  1.00  0.00     0.272 C 
ATOM     13  O   UNL     1      25.094   0.396   5.377  1.00  0.00    -0.267 OA
ATOM     14  N   UNL     1      24.069   2.124   4.326  1.00  0.00    -0.345 N 
ATOM     15  H   UNL     1      24.119   3.014   3.812  1.00  0.00     0.164 HD
BRANCH  14  16
ATOM     16  C   UNL     1      22.745   1.555   4.514  1.00  0.00     0.041 C 
ATOM     17  C   UNL     1      22.423   1.419   5.965  1.00  0.00     0.032 C 
ATOM     18  C   UNL     1      22.589   0.210   3.835  1.00  0.00     0.032 C 
ATOM     19  C   UNL     1      21.709   2.465   3.870  1.00  0.00     0.032 C 
ATOM     20  C   UNL     1      21.002   0.956   6.194  1.00  0.00    -0.008 C 
ATOM     21  C   UNL     1      21.214  -0.307   4.095  1.00  0.00    -0.008 C 
ATOM     22  C   UNL     1      20.327   1.955   4.092  1.00  0.00    -0.008 C 
ATOM     23  C   UNL     1      20.044   1.934   5.589  1.00  0.00     0.007 C 
ATOM     24  C   UNL     1      20.914  -0.430   5.561  1.00  0.00     0.007 C 
ATOM     25  C   UNL     1      20.145   0.590   3.504  1.00  0.00     0.007 C 
ENDBRANCH  14  16
ENDBRANCH   4  12
ENDBRANCH   2   3
ENDBRANCH   1   2
BRANCH   1  26
ATOM     26  C   UNL     1      31.847   0.818   6.804  1.00  0.00     0.005 C 
BRANCH  26  27
ATOM     27  C   UNL     1      33.174   1.174   6.381  1.00  0.00     0.034 C 
BRANCH  27  28
ATOM     28  C   UNL     1      33.735   1.042   5.042  1.00  0.00     0.214 C 
ATOM     29  F   UNL     1      33.211   1.723   4.005  1.00  0.00    -0.251 F 
ENDBRANCH  27  28
ENDBRANCH  26  27
ENDBRANCH   1  26
TORSDOF 7
