REMARK SMILES C[C@]1(O)CC[C@H]2[C@@H]3CCC4=CC(=O)CCC4=C3C=C[C@@]21C
REMARK SMILES IDX 1 1 2 2 4 3 5 4 6 5 7 6 8 7 9 8 10 9 11 10 12 11 13 12 14 13
REMARK SMILES IDX 15 14 16 15 17 16 18 17 19 18 20 19 21 20 3 21
REMARK H PARENT 3 22
ROOT
ATOM      1  C   UNL     1      23.348   4.858   8.730  1.00  0.00     0.043 C 
ATOM      2  C   UNL     1      23.967   3.600   8.428  1.00  0.00     0.071 C 
ATOM      3  C   UNL     1      23.764   2.418   9.415  1.00  0.00     0.036 C 
ATOM      4  C   UNL     1      25.104   1.658   9.218  1.00  0.00     0.008 C 
ATOM      5  C   UNL     1      26.043   2.855   9.040  1.00  0.00     0.009 C 
ATOM      6  C   UNL     1      27.400   2.423   8.528  1.00  0.00     0.024 C 
ATOM      7  C   UNL     1      28.159   1.468   9.330  1.00  0.00     0.013 C 
ATOM      8  C   UNL     1      29.478   1.185   8.574  1.00  0.00     0.036 C 
ATOM      9  C   UNL     1      30.156   2.485   8.393  1.00  0.00    -0.041 C 
ATOM     10  C   UNL     1      31.471   2.588   8.650  1.00  0.00     0.051 C 
ATOM     11  C   UNL     1      32.233   3.804   8.545  1.00  0.00     0.156 C 
ATOM     12  O   UNL     1      33.223   4.041   9.082  1.00  0.00    -0.295 OA
ATOM     13  C   UNL     1      31.531   4.751   7.539  1.00  0.00     0.085 C 
ATOM     14  C   UNL     1      30.116   4.993   7.890  1.00  0.00     0.044 C 
ATOM     15  C   UNL     1      29.381   3.722   8.150  1.00  0.00    -0.041 C 
ATOM     16  C   UNL     1      28.098   3.688   8.222  1.00  0.00    -0.041 C 
ATOM     17  C   UNL     1      27.306   4.941   8.122  1.00  0.00     0.000 C 
ATOM     18  C   UNL     1      26.011   4.860   7.981  1.00  0.00    -0.017 C 
ATOM     19  C   UNL     1      25.312   3.453   7.903  1.00  0.00     0.018 C 
ATOM     20  C   UNL     1      25.554   2.944   6.569  1.00  0.00     0.019 C 
ENDROOT
BRANCH   2  21
ATOM     21  O   UNL     1      23.166   3.059   7.288  1.00  0.00    -0.389 OA
ATOM     22  H   UNL     1      23.161   2.084   7.293  1.00  0.00     0.211 HD
ENDBRANCH   2  21
TORSDOF 1
