REMARK SMILES C[C@]1(O)CC[C@H]2[C@@H]3CCC4=CC(=O)CCC4=C3C=C[C@@]21C
REMARK SMILES IDX 1 1 2 2 4 3 5 4 6 5 7 6 8 7 9 8 10 9 11 10 12 11 13 12 14 13
REMARK SMILES IDX 15 14 16 15 17 16 18 17 19 18 20 19 21 20 3 21
REMARK H PARENT 3 22
ROOT
ATOM      1  C   UNL     1      24.247   4.605   9.538  1.00  0.00     0.043 C 
ATOM      2  C   UNL     1      23.987   3.546   8.556  1.00  0.00     0.071 C 
ATOM      3  C   UNL     1      23.692   2.152   9.081  1.00  0.00     0.036 C 
ATOM      4  C   UNL     1      25.018   1.431   9.100  1.00  0.00     0.008 C 
ATOM      5  C   UNL     1      26.009   2.528   8.806  1.00  0.00     0.009 C 
ATOM      6  C   UNL     1      27.408   2.220   8.647  1.00  0.00     0.024 C 
ATOM      7  C   UNL     1      28.054   1.600   9.899  1.00  0.00     0.013 C 
ATOM      8  C   UNL     1      29.471   1.324   9.444  1.00  0.00     0.036 C 
ATOM      9  C   UNL     1      30.119   2.561   9.013  1.00  0.00    -0.041 C 
ATOM     10  C   UNL     1      31.469   2.599   9.081  1.00  0.00     0.051 C 
ATOM     11  C   UNL     1      32.165   3.807   8.614  1.00  0.00     0.156 C 
ATOM     12  O   UNL     1      33.358   4.050   8.915  1.00  0.00    -0.295 OA
ATOM     13  C   UNL     1      31.335   4.700   7.753  1.00  0.00     0.085 C 
ATOM     14  C   UNL     1      30.072   5.032   8.404  1.00  0.00     0.044 C 
ATOM     15  C   UNL     1      29.343   3.739   8.623  1.00  0.00    -0.041 C 
ATOM     16  C   UNL     1      28.065   3.570   8.394  1.00  0.00    -0.041 C 
ATOM     17  C   UNL     1      27.308   4.646   7.810  1.00  0.00     0.000 C 
ATOM     18  C   UNL     1      26.011   4.507   7.484  1.00  0.00    -0.017 C 
ATOM     19  C   UNL     1      25.263   3.203   7.712  1.00  0.00     0.018 C 
ATOM     20  C   UNL     1      24.898   2.465   6.534  1.00  0.00     0.019 C 
ENDROOT
BRANCH   2  21
ATOM     21  O   UNL     1      22.932   3.837   7.679  1.00  0.00    -0.389 OA
ATOM     22  H   UNL     1      22.129   3.305   7.881  1.00  0.00     0.211 HD
ENDBRANCH   2  21
TORSDOF 1
