REMARK SMILES C[C@]1(O)CC[C@H]2[C@@H]3CCC4=CC(=O)CCC4=C3C=C[C@@]21C
REMARK SMILES IDX 1 1 2 2 4 3 5 4 6 5 7 6 8 7 9 8 10 9 11 10 12 11 13 12 14 13
REMARK SMILES IDX 15 14 16 15 17 16 18 17 19 18 20 19 21 20 3 21
REMARK H PARENT 3 22
ROOT
ATOM      1  C   UNL     1      23.714   4.788   9.067  1.00  0.00     0.043 C 
ATOM      2  C   UNL     1      24.003   3.431   8.605  1.00  0.00     0.071 C 
ATOM      3  C   UNL     1      23.766   2.224   9.388  1.00  0.00     0.036 C 
ATOM      4  C   UNL     1      25.098   1.491   9.223  1.00  0.00     0.008 C 
ATOM      5  C   UNL     1      26.052   2.665   8.986  1.00  0.00     0.009 C 
ATOM      6  C   UNL     1      27.408   2.253   8.603  1.00  0.00     0.024 C 
ATOM      7  C   UNL     1      28.144   1.427   9.534  1.00  0.00     0.013 C 
ATOM      8  C   UNL     1      29.505   1.142   8.875  1.00  0.00     0.036 C 
ATOM      9  C   UNL     1      30.192   2.433   8.645  1.00  0.00    -0.041 C 
ATOM     10  C   UNL     1      31.492   2.446   8.442  1.00  0.00     0.051 C 
ATOM     11  C   UNL     1      32.182   3.746   8.268  1.00  0.00     0.156 C 
ATOM     12  O   UNL     1      33.308   3.824   7.746  1.00  0.00    -0.295 OA
ATOM     13  C   UNL     1      31.424   4.963   8.763  1.00  0.00     0.085 C 
ATOM     14  C   UNL     1      30.091   4.979   8.085  1.00  0.00     0.044 C 
ATOM     15  C   UNL     1      29.418   3.640   8.388  1.00  0.00    -0.041 C 
ATOM     16  C   UNL     1      28.114   3.603   8.294  1.00  0.00    -0.041 C 
ATOM     17  C   UNL     1      27.224   4.687   7.810  1.00  0.00     0.000 C 
ATOM     18  C   UNL     1      25.947   4.535   7.555  1.00  0.00    -0.017 C 
ATOM     19  C   UNL     1      25.256   3.181   7.759  1.00  0.00     0.018 C 
ATOM     20  C   UNL     1      25.085   2.461   6.584  1.00  0.00     0.019 C 
ENDROOT
BRANCH   2  21
ATOM     21  O   UNL     1      22.943   3.282   7.519  1.00  0.00    -0.389 OA
ATOM     22  H   UNL     1      22.180   3.059   8.092  1.00  0.00     0.211 HD
ENDBRANCH   2  21
TORSDOF 1
