REMARK SMILES C[C@]1(O)CC[C@H]2[C@@H]3CCC4=CC(=O)CCC4=C3C=C[C@@]21C
REMARK SMILES IDX 1 1 2 2 4 3 5 4 6 5 7 6 8 7 9 8 10 9 11 10 12 11 13 12 14 13
REMARK SMILES IDX 15 14 16 15 17 16 18 17 19 18 20 19 21 20 3 21
REMARK H PARENT 3 22
ROOT
ATOM      1  C   UNL     1      23.628   5.088   9.450  1.00  0.00     0.043 C 
ATOM      2  C   UNL     1      23.804   3.852   8.764  1.00  0.00     0.071 C 
ATOM      3  C   UNL     1      23.644   2.515   9.508  1.00  0.00     0.036 C 
ATOM      4  C   UNL     1      24.888   1.772   9.053  1.00  0.00     0.008 C 
ATOM      5  C   UNL     1      25.868   2.971   8.738  1.00  0.00     0.009 C 
ATOM      6  C   UNL     1      27.037   2.451   8.087  1.00  0.00     0.024 C 
ATOM      7  C   UNL     1      28.021   1.485   8.465  1.00  0.00     0.013 C 
ATOM      8  C   UNL     1      28.989   1.762   9.575  1.00  0.00     0.036 C 
ATOM      9  C   UNL     1      29.760   2.943   9.078  1.00  0.00    -0.041 C 
ATOM     10  C   UNL     1      31.036   3.004   9.405  1.00  0.00     0.051 C 
ATOM     11  C   UNL     1      31.778   4.085   8.904  1.00  0.00     0.156 C 
ATOM     12  O   UNL     1      32.937   4.334   9.396  1.00  0.00    -0.295 OA
ATOM     13  C   UNL     1      31.185   4.896   7.772  1.00  0.00     0.085 C 
ATOM     14  C   UNL     1      29.770   5.233   8.115  1.00  0.00     0.044 C 
ATOM     15  C   UNL     1      29.023   3.930   8.317  1.00  0.00    -0.041 C 
ATOM     16  C   UNL     1      27.776   3.838   7.899  1.00  0.00    -0.041 C 
ATOM     17  C   UNL     1      26.960   4.929   7.443  1.00  0.00     0.000 C 
ATOM     18  C   UNL     1      25.602   4.863   7.370  1.00  0.00    -0.017 C 
ATOM     19  C   UNL     1      24.896   3.596   7.772  1.00  0.00     0.018 C 
ATOM     20  C   UNL     1      24.632   2.944   6.506  1.00  0.00     0.019 C 
ENDROOT
BRANCH   2  21
ATOM     21  O   UNL     1      22.591   3.718   7.882  1.00  0.00    -0.389 OA
ATOM     22  H   UNL     1      22.551   2.739   7.614  1.00  0.00     0.211 HD
ENDBRANCH   2  21
TORSDOF 1
