REMARK SMILES C[C@]1(O)CC[C@H]2[C@@H]3CCC4=CC(=O)CCC4=C3C=C[C@@]21C
REMARK SMILES IDX 1 1 2 2 4 3 5 4 6 5 7 6 8 7 9 8 10 9 11 10 12 11 13 12 14 13
REMARK SMILES IDX 15 14 16 15 17 16 18 17 19 18 20 19 21 20 3 21
REMARK H PARENT 3 22
ROOT
ATOM      1  C   UNL     1      23.571   4.498   9.644  1.00  0.00     0.043 C 
ATOM      2  C   UNL     1      23.758   3.538   8.546  1.00  0.00     0.071 C 
ATOM      3  C   UNL     1      23.617   2.092   9.121  1.00  0.00     0.036 C 
ATOM      4  C   UNL     1      24.932   1.486   8.940  1.00  0.00     0.008 C 
ATOM      5  C   UNL     1      25.876   2.853   8.729  1.00  0.00     0.009 C 
ATOM      6  C   UNL     1      27.088   2.270   8.199  1.00  0.00     0.024 C 
ATOM      7  C   UNL     1      27.978   1.374   8.860  1.00  0.00     0.013 C 
ATOM      8  C   UNL     1      28.759   1.869   9.966  1.00  0.00     0.036 C 
ATOM      9  C   UNL     1      29.674   2.875   9.143  1.00  0.00    -0.041 C 
ATOM     10  C   UNL     1      30.988   2.656   9.261  1.00  0.00     0.051 C 
ATOM     11  C   UNL     1      31.780   3.574   8.445  1.00  0.00     0.156 C 
ATOM     12  O   UNL     1      33.009   3.576   8.662  1.00  0.00    -0.295 OA
ATOM     13  C   UNL     1      31.108   4.419   7.441  1.00  0.00     0.085 C 
ATOM     14  C   UNL     1      29.814   5.131   7.981  1.00  0.00     0.044 C 
ATOM     15  C   UNL     1      29.028   3.823   8.247  1.00  0.00    -0.041 C 
ATOM     16  C   UNL     1      27.782   3.678   7.917  1.00  0.00    -0.041 C 
ATOM     17  C   UNL     1      27.038   4.863   7.591  1.00  0.00     0.000 C 
ATOM     18  C   UNL     1      25.602   4.799   7.520  1.00  0.00    -0.017 C 
ATOM     19  C   UNL     1      24.939   3.474   7.721  1.00  0.00     0.018 C 
ATOM     20  C   UNL     1      24.858   2.887   6.383  1.00  0.00     0.019 C 
ENDROOT
BRANCH   2  21
ATOM     21  O   UNL     1      22.654   3.570   7.639  1.00  0.00    -0.389 OA
ATOM     22  H   UNL     1      22.580   2.656   7.255  1.00  0.00     0.211 HD
ENDBRANCH   2  21
TORSDOF 1
