REMARK SMILES C[C@]12CC[C@H]3[C@@H](CCC4=CC(=O)CC[C@@]43C)[C@@H]1CC[C@@H]2O
REMARK SMILES IDX 1 1 2 2 3 3 4 4 5 5 6 6 7 7 8 8 9 9 10 10 11 11 12 12 13 13
REMARK SMILES IDX 14 14 15 15 16 16 17 17 18 18 19 19 20 20 21 21
REMARK H PARENT 21 22
ROOT
ATOM      1  C   UNL     1      29.970   1.594   4.311  1.00  0.00     0.014 C 
ATOM      2  C   UNL     1      29.766   2.162   5.723  1.00  0.00    -0.003 C 
ATOM      3  C   UNL     1      29.049   1.131   6.550  1.00  0.00     0.010 C 
ATOM      4  C   UNL     1      27.678   0.976   5.958  1.00  0.00     0.005 C 
ATOM      5  C   UNL     1      26.897   2.195   5.801  1.00  0.00     0.002 C 
ATOM      6  C   UNL     1      27.694   3.189   5.034  1.00  0.00    -0.003 C 
ATOM      7  C   UNL     1      27.033   4.466   4.743  1.00  0.00     0.008 C 
ATOM      8  C   UNL     1      25.698   4.215   4.016  1.00  0.00     0.032 C 
ATOM      9  C   UNL     1      24.871   3.306   4.896  1.00  0.00    -0.060 C 
ATOM     10  C   UNL     1      23.598   3.752   5.203  1.00  0.00     0.047 C 
ATOM     11  C   UNL     1      22.915   2.739   6.037  1.00  0.00     0.155 C 
ATOM     12  O   UNL     1      22.048   3.293   6.691  1.00  0.00    -0.295 OA
ATOM     13  C   UNL     1      23.388   1.387   5.999  1.00  0.00     0.081 C 
ATOM     14  C   UNL     1      24.780   1.078   6.022  1.00  0.00     0.019 C 
ATOM     15  C   UNL     1      25.536   2.035   5.080  1.00  0.00    -0.008 C 
ATOM     16  C   UNL     1      25.850   1.384   3.791  1.00  0.00     0.016 C 
ATOM     17  C   UNL     1      29.058   3.469   5.678  1.00  0.00     0.001 C 
ATOM     18  C   UNL     1      29.961   4.234   4.823  1.00  0.00     0.007 C 
ATOM     19  C   UNL     1      31.357   3.886   5.399  1.00  0.00     0.032 C 
ATOM     20  C   UNL     1      31.065   2.642   6.285  1.00  0.00     0.120 C 
ENDROOT
BRANCH  20  21
ATOM     21  O   UNL     1      32.108   1.728   6.008  1.00  0.00    -0.393 OA
ATOM     22  H   UNL     1      32.324   1.237   6.822  1.00  0.00     0.210 HD
ENDBRANCH  20  21
TORSDOF 1
