REMARK SMILES C[C@]12CC[C@H]3[C@@H](CCC4=CC(=O)CC[C@@]43C)[C@@H]1CC[C@@H]2O
REMARK SMILES IDX 1 1 2 2 3 3 4 4 5 5 6 6 7 7 8 8 9 9 10 10 11 11 12 12 13 13
REMARK SMILES IDX 14 14 15 15 16 16 17 17 18 18 19 19 20 20 21 21
REMARK H PARENT 21 22
ROOT
ATOM      1  C   UNL     1      30.608   1.619   4.323  1.00  0.00     0.014 C 
ATOM      2  C   UNL     1      30.009   2.083   5.589  1.00  0.00    -0.003 C 
ATOM      3  C   UNL     1      29.254   1.052   6.330  1.00  0.00     0.010 C 
ATOM      4  C   UNL     1      27.883   0.915   5.659  1.00  0.00     0.005 C 
ATOM      5  C   UNL     1      27.162   2.246   5.711  1.00  0.00     0.002 C 
ATOM      6  C   UNL     1      28.000   3.231   4.870  1.00  0.00    -0.003 C 
ATOM      7  C   UNL     1      27.215   4.575   4.906  1.00  0.00     0.008 C 
ATOM      8  C   UNL     1      25.902   4.391   4.208  1.00  0.00     0.032 C 
ATOM      9  C   UNL     1      25.078   3.321   4.864  1.00  0.00    -0.060 C 
ATOM     10  C   UNL     1      23.830   3.575   5.091  1.00  0.00     0.047 C 
ATOM     11  C   UNL     1      22.973   2.595   5.701  1.00  0.00     0.155 C 
ATOM     12  O   UNL     1      21.839   2.888   6.044  1.00  0.00    -0.295 OA
ATOM     13  C   UNL     1      23.589   1.207   5.864  1.00  0.00     0.081 C 
ATOM     14  C   UNL     1      25.009   1.351   6.259  1.00  0.00     0.019 C 
ATOM     15  C   UNL     1      25.806   2.082   5.077  1.00  0.00    -0.008 C 
ATOM     16  C   UNL     1      25.688   1.167   3.907  1.00  0.00     0.016 C 
ATOM     17  C   UNL     1      29.319   3.424   5.535  1.00  0.00     0.001 C 
ATOM     18  C   UNL     1      30.392   4.105   4.702  1.00  0.00     0.007 C 
ATOM     19  C   UNL     1      31.620   3.790   5.574  1.00  0.00     0.032 C 
ATOM     20  C   UNL     1      31.164   2.638   6.477  1.00  0.00     0.120 C 
ENDROOT
BRANCH  20  21
ATOM     21  O   UNL     1      32.161   1.737   6.665  1.00  0.00    -0.393 OA
ATOM     22  H   UNL     1      32.367   1.157   5.893  1.00  0.00     0.210 HD
ENDBRANCH  20  21
TORSDOF 1
