REMARK SMILES C[C@]12CC[C@H]3[C@@H](CCC4=CC(=O)CC[C@@]43C)[C@@H]1CC[C@@H]2O
REMARK SMILES IDX 1 1 2 2 3 3 4 4 5 5 6 6 7 7 8 8 9 9 10 10 11 11 12 12 13 13
REMARK SMILES IDX 14 14 15 15 16 16 17 17 18 18 19 19 20 20 21 21
REMARK H PARENT 21 22
ROOT
ATOM      1  C   UNL     1      30.235   1.515   4.231  1.00  0.00     0.014 C 
ATOM      2  C   UNL     1      29.833   2.089   5.574  1.00  0.00    -0.003 C 
ATOM      3  C   UNL     1      29.041   1.051   6.314  1.00  0.00     0.010 C 
ATOM      4  C   UNL     1      27.705   0.918   5.686  1.00  0.00     0.005 C 
ATOM      5  C   UNL     1      26.976   2.285   5.689  1.00  0.00     0.002 C 
ATOM      6  C   UNL     1      27.850   3.235   4.860  1.00  0.00    -0.003 C 
ATOM      7  C   UNL     1      27.099   4.589   4.833  1.00  0.00     0.008 C 
ATOM      8  C   UNL     1      25.802   4.392   4.117  1.00  0.00     0.032 C 
ATOM      9  C   UNL     1      24.946   3.363   4.724  1.00  0.00    -0.060 C 
ATOM     10  C   UNL     1      23.665   3.584   4.897  1.00  0.00     0.047 C 
ATOM     11  C   UNL     1      22.838   2.552   5.469  1.00  0.00     0.155 C 
ATOM     12  O   UNL     1      21.629   2.834   5.844  1.00  0.00    -0.295 OA
ATOM     13  C   UNL     1      23.388   1.163   5.613  1.00  0.00     0.081 C 
ATOM     14  C   UNL     1      24.839   1.340   6.089  1.00  0.00     0.019 C 
ATOM     15  C   UNL     1      25.646   2.100   5.004  1.00  0.00    -0.008 C 
ATOM     16  C   UNL     1      25.665   1.144   3.859  1.00  0.00     0.016 C 
ATOM     17  C   UNL     1      29.173   3.418   5.533  1.00  0.00     0.001 C 
ATOM     18  C   UNL     1      30.221   4.078   4.634  1.00  0.00     0.007 C 
ATOM     19  C   UNL     1      31.501   3.791   5.353  1.00  0.00     0.032 C 
ATOM     20  C   UNL     1      31.093   2.590   6.306  1.00  0.00     0.120 C 
ENDROOT
BRANCH  20  21
ATOM     21  O   UNL     1      32.056   1.579   6.077  1.00  0.00    -0.393 OA
ATOM     22  H   UNL     1      32.743   1.809   5.448  1.00  0.00     0.210 HD
ENDBRANCH  20  21
TORSDOF 1
