REMARK SMILES C[C@]12CC[C@H]3[C@@H](CCC4=CC(=O)CC[C@@]43C)[C@@H]1CC[C@@H]2O
REMARK SMILES IDX 1 1 2 2 3 3 4 4 5 5 6 6 7 7 8 8 9 9 10 10 11 11 12 12 13 13
REMARK SMILES IDX 14 14 15 15 16 16 17 17 18 18 19 19 20 20 21 21
REMARK H PARENT 21 22
ROOT
ATOM      1  C   UNL     1      30.087   1.360   4.684  1.00  0.00     0.014 C 
ATOM      2  C   UNL     1      29.623   2.194   5.870  1.00  0.00    -0.003 C 
ATOM      3  C   UNL     1      28.776   1.265   6.642  1.00  0.00     0.010 C 
ATOM      4  C   UNL     1      27.625   0.843   5.802  1.00  0.00     0.005 C 
ATOM      5  C   UNL     1      26.891   2.060   5.396  1.00  0.00     0.002 C 
ATOM      6  C   UNL     1      27.731   3.060   4.613  1.00  0.00    -0.003 C 
ATOM      7  C   UNL     1      26.866   4.172   4.110  1.00  0.00     0.008 C 
ATOM      8  C   UNL     1      25.866   4.702   5.129  1.00  0.00     0.032 C 
ATOM      9  C   UNL     1      24.931   3.463   5.346  1.00  0.00    -0.060 C 
ATOM     10  C   UNL     1      23.694   3.557   5.787  1.00  0.00     0.047 C 
ATOM     11  C   UNL     1      22.905   2.409   5.964  1.00  0.00     0.155 C 
ATOM     12  O   UNL     1      21.858   2.406   6.601  1.00  0.00    -0.295 OA
ATOM     13  C   UNL     1      23.288   1.063   5.392  1.00  0.00     0.081 C 
ATOM     14  C   UNL     1      24.737   0.939   5.735  1.00  0.00     0.019 C 
ATOM     15  C   UNL     1      25.470   2.115   5.018  1.00  0.00    -0.008 C 
ATOM     16  C   UNL     1      25.303   1.785   3.528  1.00  0.00     0.016 C 
ATOM     17  C   UNL     1      28.883   3.470   5.450  1.00  0.00     0.001 C 
ATOM     18  C   UNL     1      30.002   3.831   4.406  1.00  0.00     0.007 C 
ATOM     19  C   UNL     1      31.239   3.761   5.270  1.00  0.00     0.032 C 
ATOM     20  C   UNL     1      30.813   2.824   6.466  1.00  0.00     0.120 C 
ENDROOT
BRANCH  20  21
ATOM     21  O   UNL     1      31.765   1.834   6.661  1.00  0.00    -0.393 OA
ATOM     22  H   UNL     1      32.514   2.195   7.175  1.00  0.00     0.210 HD
ENDBRANCH  20  21
TORSDOF 1
