REMARK SMILES CCCCCc1cc(O)c2c(c1)OC(C)(C)c1ccc(C)cc1-2
REMARK SMILES IDX 4 1 3 2 2 3 1 4 5 5 6 6 7 7 12 8 8 9 11 10 10 11 13 12 23 13
REMARK SMILES IDX 14 14 22 15 17 16 20 17 18 18 19 19 15 20 16 21 21 22 9 23
REMARK H PARENT 9 24
ROOT
ATOM      1  C   UNL     1      30.518   1.690   5.208  1.00  0.00     0.005 C 
ENDROOT
BRANCH   1   2
ATOM      2  C   UNL     1      32.013   1.641   5.385  1.00  0.00     0.000 C 
BRANCH   2   3
ATOM      3  C   UNL     1      32.606   2.905   5.912  1.00  0.00    -0.003 C 
ATOM      4  C   UNL     1      32.348   4.078   5.008  1.00  0.00     0.004 C 
ENDBRANCH   2   3
ENDBRANCH   1   2
BRANCH   1   5
ATOM      5  C   UNL     1      29.749   1.959   6.459  1.00  0.00     0.036 C 
BRANCH   5   6
ATOM      6  C   UNL     1      28.288   1.999   6.250  1.00  0.00    -0.041 A 
ATOM      7  C   UNL     1      27.581   0.830   6.373  1.00  0.00     0.050 A 
ATOM      8  C   UNL     1      27.679   3.191   5.940  1.00  0.00     0.051 A 
ATOM      9  C   UNL     1      26.200   0.820   6.184  1.00  0.00     0.127 A 
ATOM     10  C   UNL     1      26.298   3.144   5.759  1.00  0.00     0.132 A 
ATOM     11  C   UNL     1      25.565   1.995   5.874  1.00  0.00     0.066 A 
ATOM     12  O   UNL     1      25.685   4.343   5.447  1.00  0.00    -0.482 OA
ATOM     13  C   UNL     1      24.144   2.058   5.666  1.00  0.00    -0.003 A 
ATOM     14  C   UNL     1      24.321   4.541   5.222  1.00  0.00     0.129 C 
ATOM     15  C   UNL     1      23.349   0.939   5.768  1.00  0.00     0.012 A 
ATOM     16  C   UNL     1      23.584   3.271   5.360  1.00  0.00     0.003 A 
ATOM     17  C   UNL     1      21.960   1.001   5.564  1.00  0.00    -0.050 A 
ATOM     18  C   UNL     1      22.210   3.328   5.159  1.00  0.00     0.009 A 
ATOM     19  C   UNL     1      21.415   2.210   5.261  1.00  0.00     0.004 A 
ATOM     20  C   UNL     1      24.115   5.180   3.869  1.00  0.00     0.062 C 
ATOM     21  C   UNL     1      23.814   5.457   6.315  1.00  0.00     0.062 C 
ATOM     22  C   UNL     1      21.102  -0.202   5.673  1.00  0.00     0.044 C 
BRANCH   9  23
ATOM     23  O   UNL     1      25.581  -0.400   6.329  1.00  0.00    -0.507 OA
ATOM     24  H   UNL     1      25.913  -1.285   6.028  1.00  0.00     0.293 HD
ENDBRANCH   9  23
ENDBRANCH   5   6
ENDBRANCH   1   5
TORSDOF 5
