REMARK SMILES CCCCCc1cc(O)c2c(c1)OC(C)(C)c1ccc(C)cc1-2
REMARK SMILES IDX 4 1 3 2 2 3 1 4 5 5 6 6 7 7 12 8 8 9 11 10 10 11 13 12 23 13
REMARK SMILES IDX 14 14 22 15 17 16 20 17 18 18 19 19 15 20 16 21 21 22 9 23
REMARK H PARENT 9 24
ROOT
ATOM      1  C   UNL     1      30.252   2.164   5.486  1.00  0.00     0.005 C 
ENDROOT
BRANCH   1   2
ATOM      2  C   UNL     1      31.718   2.192   5.912  1.00  0.00     0.000 C 
BRANCH   2   3
ATOM      3  C   UNL     1      32.545   2.131   4.648  1.00  0.00    -0.003 C 
ATOM      4  C   UNL     1      32.216   3.317   3.784  1.00  0.00     0.004 C 
ENDBRANCH   2   3
ENDBRANCH   1   2
BRANCH   1   5
ATOM      5  C   UNL     1      29.412   2.225   6.741  1.00  0.00     0.036 C 
BRANCH   5   6
ATOM      6  C   UNL     1      27.971   2.200   6.384  1.00  0.00    -0.041 A 
ATOM      7  C   UNL     1      27.337   0.989   6.284  1.00  0.00     0.050 A 
ATOM      8  C   UNL     1      27.259   3.355   6.151  1.00  0.00     0.051 A 
ATOM      9  C   UNL     1      25.978   0.926   5.949  1.00  0.00     0.127 A 
ATOM     10  C   UNL     1      25.910   3.325   5.816  1.00  0.00     0.132 A 
ATOM     11  C   UNL     1      25.296   2.078   5.724  1.00  0.00     0.066 A 
ATOM     12  O   UNL     1      25.289   4.515   5.605  1.00  0.00    -0.482 OA
ATOM     13  C   UNL     1      23.899   2.067   5.376  1.00  0.00    -0.003 A 
ATOM     14  C   UNL     1      23.934   4.591   5.264  1.00  0.00     0.129 C 
ATOM     15  C   UNL     1      23.187   0.897   5.255  1.00  0.00     0.012 A 
ATOM     16  C   UNL     1      23.274   3.267   5.163  1.00  0.00     0.003 A 
ATOM     17  C   UNL     1      21.823   0.891   4.916  1.00  0.00    -0.050 A 
ATOM     18  C   UNL     1      21.920   3.294   4.824  1.00  0.00     0.009 A 
ATOM     19  C   UNL     1      21.233   2.113   4.710  1.00  0.00     0.004 A 
ATOM     20  C   UNL     1      23.715   5.269   3.925  1.00  0.00     0.062 C 
ATOM     21  C   UNL     1      23.277   5.414   6.383  1.00  0.00     0.062 C 
ATOM     22  C   UNL     1      21.063  -0.380   4.788  1.00  0.00     0.044 C 
BRANCH   9  23
ATOM     23  O   UNL     1      25.456  -0.350   5.880  1.00  0.00    -0.507 OA
ATOM     24  H   UNL     1      25.686  -1.102   6.548  1.00  0.00     0.293 HD
ENDBRANCH   9  23
ENDBRANCH   5   6
ENDBRANCH   1   5
TORSDOF 5
