REMARK SMILES CCCCCc1cc(O)c2c(c1)OC(C)(C)c1ccc(C)cc1-2
REMARK SMILES IDX 4 1 3 2 2 3 1 4 5 5 6 6 7 7 12 8 8 9 11 10 10 11 13 12 23 13
REMARK SMILES IDX 14 14 22 15 17 16 20 17 18 18 19 19 15 20 16 21 21 22 9 23
REMARK H PARENT 9 24
ROOT
ATOM      1  C   UNL     1      30.036   2.110   6.298  1.00  0.00     0.005 C 
ENDROOT
BRANCH   1   2
ATOM      2  C   UNL     1      31.538   2.115   6.105  1.00  0.00     0.000 C 
BRANCH   2   3
ATOM      3  C   UNL     1      32.034   3.259   5.278  1.00  0.00    -0.003 C 
ATOM      4  C   UNL     1      33.551   3.101   5.192  1.00  0.00     0.004 C 
ENDBRANCH   2   3
ENDBRANCH   1   2
BRANCH   1   5
ATOM      5  C   UNL     1      29.290   2.022   5.012  1.00  0.00     0.036 C 
BRANCH   5   6
ATOM      6  C   UNL     1      27.839   2.011   5.100  1.00  0.00    -0.041 A 
ATOM      7  C   UNL     1      27.175   0.815   5.214  1.00  0.00     0.050 A 
ATOM      8  C   UNL     1      27.150   3.204   5.068  1.00  0.00     0.051 A 
ATOM      9  C   UNL     1      25.779   0.798   5.299  1.00  0.00     0.127 A 
ATOM     10  C   UNL     1      25.752   3.182   5.154  1.00  0.00     0.132 A 
ATOM     11  C   UNL     1      25.088   1.982   5.268  1.00  0.00     0.066 A 
ATOM     12  O   UNL     1      25.136   4.417   5.115  1.00  0.00    -0.482 OA
ATOM     13  C   UNL     1      23.647   2.017   5.352  1.00  0.00    -0.003 A 
ATOM     14  C   UNL     1      23.741   4.535   5.191  1.00  0.00     0.129 C 
ATOM     15  C   UNL     1      22.900   0.868   5.468  1.00  0.00     0.012 A 
ATOM     16  C   UNL     1      23.029   3.238   5.314  1.00  0.00     0.003 A 
ATOM     17  C   UNL     1      21.499   0.917   5.550  1.00  0.00    -0.050 A 
ATOM     18  C   UNL     1      21.642   3.315   5.393  1.00  0.00     0.009 A 
ATOM     19  C   UNL     1      20.917   2.152   5.508  1.00  0.00     0.004 A 
ATOM     20  C   UNL     1      23.371   5.331   6.443  1.00  0.00     0.062 C 
ATOM     21  C   UNL     1      23.223   5.344   4.018  1.00  0.00     0.062 C 
ATOM     22  C   UNL     1      20.687  -0.322   5.675  1.00  0.00     0.044 C 
BRANCH   9  23
ATOM     23  O   UNL     1      25.209  -0.451   5.410  1.00  0.00    -0.507 OA
ATOM     24  H   UNL     1      25.516  -1.047   6.184  1.00  0.00     0.293 HD
ENDBRANCH   9  23
ENDBRANCH   5   6
ENDBRANCH   1   5
TORSDOF 5
