REMARK SMILES C[C@]12CCC(=O)C[C@@H]1CC[C@@H]1[C@@H]2CC[C@]2(C)[C@@H](O)CC[C@@]12C
REMARK SMILES IDX 1 1 2 2 3 3 4 4 5 5 6 6 7 7 8 8 9 9 10 10 11 11 12 12 13 13
REMARK SMILES IDX 14 14 15 15 16 16 17 17 19 18 20 19 21 20 22 21 18 22
REMARK H PARENT 18 23
ROOT
ATOM      1  C   UNL     1      29.251   3.406   6.881  1.00  0.00     0.012 C 
ATOM      2  C   UNL     1      29.141   2.527   5.714  1.00  0.00    -0.026 C 
ATOM      3  C   UNL     1      29.856   1.159   5.972  1.00  0.00     0.015 C 
ATOM      4  C   UNL     1      31.364   1.164   5.959  1.00  0.00     0.076 C 
ATOM      5  C   UNL     1      31.770   2.564   5.882  1.00  0.00     0.133 C 
ATOM      6  O   UNL     1      32.543   3.025   6.740  1.00  0.00    -0.300 OA
ATOM      7  C   UNL     1      31.258   3.380   4.791  1.00  0.00     0.079 C 
ATOM      8  C   UNL     1      29.823   2.896   4.427  1.00  0.00     0.002 C 
ATOM      9  C   UNL     1      29.143   4.069   3.740  1.00  0.00     0.005 C 
ATOM     10  C   UNL     1      27.733   3.665   3.425  1.00  0.00     0.005 C 
ATOM     11  C   UNL     1      27.003   3.296   4.676  1.00  0.00    -0.001 C 
ATOM     12  C   UNL     1      27.719   2.109   5.387  1.00  0.00    -0.001 C 
ATOM     13  C   UNL     1      27.018   1.943   6.756  1.00  0.00     0.005 C 
ATOM     14  C   UNL     1      25.584   1.450   6.536  1.00  0.00     0.010 C 
ATOM     15  C   UNL     1      24.917   2.488   5.699  1.00  0.00    -0.001 C 
ATOM     16  C   UNL     1      24.729   3.742   6.660  1.00  0.00     0.015 C 
ATOM     17  C   UNL     1      23.529   2.189   5.226  1.00  0.00     0.121 C 
ATOM     18  C   UNL     1      23.316   3.389   4.223  1.00  0.00     0.033 C 
ATOM     19  C   UNL     1      24.683   4.005   4.058  1.00  0.00     0.010 C 
ATOM     20  C   UNL     1      25.611   2.824   4.470  1.00  0.00    -0.022 C 
ATOM     21  C   UNL     1      25.442   1.751   3.467  1.00  0.00     0.012 C 
ENDROOT
BRANCH  17  22
ATOM     22  O   UNL     1      22.633   2.322   6.247  1.00  0.00    -0.393 OA
ATOM     23  H   UNL     1      21.830   1.738   6.167  1.00  0.00     0.210 HD
ENDBRANCH  17  22
TORSDOF 1
