REMARK SMILES C[C@]12CCC(=O)C[C@@H]1CC[C@@H]1[C@@H]2CC[C@]2(C)[C@@H](O)CC[C@@]12C
REMARK SMILES IDX 1 1 2 2 3 3 4 4 5 5 6 6 7 7 8 8 9 9 10 10 11 11 12 12 13 13
REMARK SMILES IDX 14 14 15 15 16 16 17 17 19 18 20 19 21 20 22 21 18 22
REMARK H PARENT 18 23
ROOT
ATOM      1  C   UNL     1      28.899   3.697   6.959  1.00  0.00     0.012 C 
ATOM      2  C   UNL     1      28.800   2.526   6.031  1.00  0.00    -0.026 C 
ATOM      3  C   UNL     1      29.706   1.391   6.573  1.00  0.00     0.015 C 
ATOM      4  C   UNL     1      31.212   1.669   6.512  1.00  0.00     0.076 C 
ATOM      5  C   UNL     1      31.395   3.058   6.065  1.00  0.00     0.133 C 
ATOM      6  O   UNL     1      32.114   3.819   6.752  1.00  0.00    -0.300 OA
ATOM      7  C   UNL     1      30.761   3.587   4.808  1.00  0.00     0.079 C 
ATOM      8  C   UNL     1      29.477   2.813   4.680  1.00  0.00     0.002 C 
ATOM      9  C   UNL     1      28.590   2.937   3.461  1.00  0.00     0.005 C 
ATOM     10  C   UNL     1      27.537   3.962   3.883  1.00  0.00     0.005 C 
ATOM     11  C   UNL     1      26.769   3.361   5.001  1.00  0.00    -0.001 C 
ATOM     12  C   UNL     1      27.435   2.173   5.674  1.00  0.00    -0.001 C 
ATOM     13  C   UNL     1      26.643   1.725   6.889  1.00  0.00     0.005 C 
ATOM     14  C   UNL     1      25.209   1.324   6.495  1.00  0.00     0.010 C 
ATOM     15  C   UNL     1      24.571   2.509   5.850  1.00  0.00    -0.001 C 
ATOM     16  C   UNL     1      24.432   3.542   6.964  1.00  0.00     0.015 C 
ATOM     17  C   UNL     1      23.226   2.420   5.252  1.00  0.00     0.121 C 
ATOM     18  C   UNL     1      23.137   3.799   4.517  1.00  0.00     0.033 C 
ATOM     19  C   UNL     1      24.551   4.329   4.587  1.00  0.00     0.010 C 
ATOM     20  C   UNL     1      25.366   2.967   4.680  1.00  0.00    -0.022 C 
ATOM     21  C   UNL     1      25.175   2.322   3.429  1.00  0.00     0.012 C 
ENDROOT
BRANCH  17  22
ATOM     22  O   UNL     1      22.310   2.479   6.319  1.00  0.00    -0.393 OA
ATOM     23  H   UNL     1      22.258   1.526   6.700  1.00  0.00     0.210 HD
ENDBRANCH  17  22
TORSDOF 1
