REMARK SMILES C[C@]12CCC(=O)C[C@@H]1CC[C@@H]1[C@@H]2CC[C@]2(C)[C@@H](O)CC[C@@]12C
REMARK SMILES IDX 1 1 2 2 3 3 4 4 5 5 6 6 7 7 8 8 9 9 10 10 11 11 12 12 13 13
REMARK SMILES IDX 14 14 15 15 16 16 17 17 19 18 20 19 21 20 22 21 18 22
REMARK H PARENT 18 23
ROOT
ATOM      1  C   UNL     1      29.384   3.456   6.880  1.00  0.00     0.012 C 
ATOM      2  C   UNL     1      29.211   2.606   5.718  1.00  0.00    -0.026 C 
ATOM      3  C   UNL     1      29.890   1.194   6.005  1.00  0.00     0.015 C 
ATOM      4  C   UNL     1      31.382   1.159   5.992  1.00  0.00     0.076 C 
ATOM      5  C   UNL     1      31.819   2.554   5.956  1.00  0.00     0.133 C 
ATOM      6  O   UNL     1      32.567   2.944   6.860  1.00  0.00    -0.300 OA
ATOM      7  C   UNL     1      31.348   3.401   4.856  1.00  0.00     0.079 C 
ATOM      8  C   UNL     1      29.935   2.989   4.425  1.00  0.00     0.002 C 
ATOM      9  C   UNL     1      29.217   4.121   3.757  1.00  0.00     0.005 C 
ATOM     10  C   UNL     1      27.806   3.687   3.435  1.00  0.00     0.005 C 
ATOM     11  C   UNL     1      27.081   3.325   4.678  1.00  0.00    -0.001 C 
ATOM     12  C   UNL     1      27.799   2.161   5.398  1.00  0.00    -0.001 C 
ATOM     13  C   UNL     1      27.112   1.934   6.758  1.00  0.00     0.005 C 
ATOM     14  C   UNL     1      25.673   1.425   6.510  1.00  0.00     0.010 C 
ATOM     15  C   UNL     1      25.000   2.490   5.697  1.00  0.00    -0.001 C 
ATOM     16  C   UNL     1      24.758   3.699   6.638  1.00  0.00     0.015 C 
ATOM     17  C   UNL     1      23.615   2.156   5.179  1.00  0.00     0.121 C 
ATOM     18  C   UNL     1      23.380   3.355   4.222  1.00  0.00     0.033 C 
ATOM     19  C   UNL     1      24.755   4.031   4.097  1.00  0.00     0.010 C 
ATOM     20  C   UNL     1      25.685   2.852   4.490  1.00  0.00    -0.022 C 
ATOM     21  C   UNL     1      25.604   1.786   3.443  1.00  0.00     0.012 C 
ENDROOT
BRANCH  17  22
ATOM     22  O   UNL     1      22.677   2.131   6.189  1.00  0.00    -0.393 OA
ATOM     23  H   UNL     1      21.805   2.515   5.968  1.00  0.00     0.210 HD
ENDBRANCH  17  22
TORSDOF 1
