REMARK SMILES C[C@]12CCC(=O)C[C@@H]1CC[C@@H]1[C@@H]2CC[C@]2(C)[C@@H](O)CC[C@@]12C
REMARK SMILES IDX 1 1 2 2 3 3 4 4 5 5 6 6 7 7 8 8 9 9 10 10 11 11 12 12 13 13
REMARK SMILES IDX 14 14 15 15 16 16 17 17 19 18 20 19 21 20 22 21 18 22
REMARK H PARENT 18 23
ROOT
ATOM      1  C   UNL     1      29.285   3.150   6.969  1.00  0.00     0.012 C 
ATOM      2  C   UNL     1      28.833   2.633   5.677  1.00  0.00    -0.026 C 
ATOM      3  C   UNL     1      29.539   1.181   5.668  1.00  0.00     0.015 C 
ATOM      4  C   UNL     1      30.946   1.120   5.641  1.00  0.00     0.076 C 
ATOM      5  C   UNL     1      31.721   2.314   5.301  1.00  0.00     0.133 C 
ATOM      6  O   UNL     1      32.874   2.321   5.329  1.00  0.00    -0.300 OA
ATOM      7  C   UNL     1      30.975   3.506   4.849  1.00  0.00     0.079 C 
ATOM      8  C   UNL     1      29.589   3.230   4.487  1.00  0.00     0.002 C 
ATOM      9  C   UNL     1      28.857   4.387   3.928  1.00  0.00     0.005 C 
ATOM     10  C   UNL     1      27.434   3.891   3.507  1.00  0.00     0.005 C 
ATOM     11  C   UNL     1      26.754   3.397   4.727  1.00  0.00    -0.001 C 
ATOM     12  C   UNL     1      27.471   2.202   5.379  1.00  0.00    -0.001 C 
ATOM     13  C   UNL     1      26.717   2.282   6.852  1.00  0.00     0.005 C 
ATOM     14  C   UNL     1      25.285   1.747   6.615  1.00  0.00     0.010 C 
ATOM     15  C   UNL     1      24.683   2.648   5.669  1.00  0.00    -0.001 C 
ATOM     16  C   UNL     1      24.176   3.977   6.308  1.00  0.00     0.015 C 
ATOM     17  C   UNL     1      23.314   2.107   5.118  1.00  0.00     0.121 C 
ATOM     18  C   UNL     1      23.073   3.085   3.938  1.00  0.00     0.033 C 
ATOM     19  C   UNL     1      24.409   3.820   3.783  1.00  0.00     0.010 C 
ATOM     20  C   UNL     1      25.364   2.896   4.449  1.00  0.00    -0.022 C 
ATOM     21  C   UNL     1      25.482   1.617   3.596  1.00  0.00     0.012 C 
ENDROOT
BRANCH  17  22
ATOM     22  O   UNL     1      22.326   2.371   6.026  1.00  0.00    -0.393 OA
ATOM     23  H   UNL     1      21.498   2.718   5.566  1.00  0.00     0.210 HD
ENDBRANCH  17  22
TORSDOF 1
