REMARK SMILES C[C@]12CCC(=O)C[C@@H]1CC[C@@H]1[C@@H]2CC[C@]2(C)[C@@H](O)CC[C@@]12C
REMARK SMILES IDX 1 1 2 2 3 3 4 4 5 5 6 6 7 7 8 8 9 9 10 10 11 11 12 12 13 13
REMARK SMILES IDX 14 14 15 15 16 16 17 17 19 18 20 19 21 20 22 21 18 22
REMARK H PARENT 18 23
ROOT
ATOM      1  C   UNL     1      29.262   3.507   6.851  1.00  0.00     0.012 C 
ATOM      2  C   UNL     1      29.091   2.593   5.724  1.00  0.00    -0.026 C 
ATOM      3  C   UNL     1      29.806   1.217   6.043  1.00  0.00     0.015 C 
ATOM      4  C   UNL     1      31.316   1.224   6.029  1.00  0.00     0.076 C 
ATOM      5  C   UNL     1      31.735   2.620   5.973  1.00  0.00     0.133 C 
ATOM      6  O   UNL     1      32.491   3.048   6.841  1.00  0.00    -0.300 OA
ATOM      7  C   UNL     1      31.200   3.422   4.852  1.00  0.00     0.079 C 
ATOM      8  C   UNL     1      29.796   2.960   4.432  1.00  0.00     0.002 C 
ATOM      9  C   UNL     1      29.107   4.122   3.765  1.00  0.00     0.005 C 
ATOM     10  C   UNL     1      27.668   3.713   3.451  1.00  0.00     0.005 C 
ATOM     11  C   UNL     1      26.964   3.318   4.693  1.00  0.00    -0.001 C 
ATOM     12  C   UNL     1      27.687   2.157   5.397  1.00  0.00    -0.001 C 
ATOM     13  C   UNL     1      27.000   1.931   6.766  1.00  0.00     0.005 C 
ATOM     14  C   UNL     1      25.561   1.419   6.532  1.00  0.00     0.010 C 
ATOM     15  C   UNL     1      24.900   2.498   5.732  1.00  0.00    -0.001 C 
ATOM     16  C   UNL     1      24.653   3.641   6.704  1.00  0.00     0.015 C 
ATOM     17  C   UNL     1      23.507   2.170   5.194  1.00  0.00     0.121 C 
ATOM     18  C   UNL     1      23.279   3.404   4.269  1.00  0.00     0.033 C 
ATOM     19  C   UNL     1      24.638   4.035   4.122  1.00  0.00     0.010 C 
ATOM     20  C   UNL     1      25.576   2.856   4.509  1.00  0.00    -0.022 C 
ATOM     21  C   UNL     1      25.430   1.795   3.442  1.00  0.00     0.012 C 
ENDROOT
BRANCH  17  22
ATOM     22  O   UNL     1      22.606   2.247   6.204  1.00  0.00    -0.393 OA
ATOM     23  H   UNL     1      21.882   2.915   6.038  1.00  0.00     0.210 HD
ENDBRANCH  17  22
TORSDOF 1
