REMARK SMILES C[C@]1(O)CC[C@H]2[C@@H]3CCC4=CC(=O)CCC4=C3C=C[C@@]21C
REMARK SMILES IDX 1 1 2 2 4 3 5 4 6 5 20 6 19 7 18 8 17 9 16 10 15 11 14 12
REMARK SMILES IDX 12 13 13 14 11 15 10 16 9 17 8 18 7 19 21 20 3 21
REMARK H PARENT 3 22
ROOT
ATOM      1  C   UNL     1      32.613   2.391   4.925  1.00  0.00     0.043 C 
ATOM      2  C   UNL     1      32.407   1.912   6.366  1.00  0.00     0.071 C 
ATOM      3  C   UNL     1      32.632   0.385   6.488  1.00  0.00     0.036 C 
ATOM      4  C   UNL     1      31.251  -0.288   6.586  1.00  0.00     0.008 C 
ATOM      5  C   UNL     1      30.269   0.834   6.258  1.00  0.00     0.009 C 
ATOM      6  C   UNL     1      30.934   2.088   6.844  1.00  0.00     0.018 C 
ATOM      7  C   UNL     1      30.162   3.267   6.352  1.00  0.00    -0.017 C 
ATOM      8  C   UNL     1      28.840   3.174   6.162  1.00  0.00     0.000 C 
ATOM      9  C   UNL     1      28.066   1.971   6.383  1.00  0.00    -0.041 C 
ATOM     10  C   UNL     1      26.707   1.940   6.308  1.00  0.00    -0.041 C 
ATOM     11  C   UNL     1      25.855   3.138   5.972  1.00  0.00     0.044 C 
ATOM     12  C   UNL     1      24.580   3.176   6.809  1.00  0.00     0.085 C 
ATOM     13  C   UNL     1      23.791   1.892   6.662  1.00  0.00     0.156 C 
ATOM     14  O   UNL     1      22.577   1.865   6.666  1.00  0.00    -0.295 OA
ATOM     15  C   UNL     1      24.615   0.700   6.577  1.00  0.00     0.051 C 
ATOM     16  C   UNL     1      25.966   0.712   6.495  1.00  0.00    -0.041 C 
ATOM     17  C   UNL     1      26.711  -0.589   6.590  1.00  0.00     0.036 C 
ATOM     18  C   UNL     1      28.121  -0.480   6.035  1.00  0.00     0.013 C 
ATOM     19  C   UNL     1      28.822   0.697   6.710  1.00  0.00     0.024 C 
ATOM     20  C   UNL     1      30.908   2.130   8.381  1.00  0.00     0.019 C 
ENDROOT
BRANCH   2  21
ATOM     21  O   UNL     1      33.347   2.552   7.205  1.00  0.00    -0.389 OA
ATOM     22  H   UNL     1      33.291   3.503   7.064  1.00  0.00     0.211 HD
ENDBRANCH   2  21
TORSDOF 1
