REMARK SMILES C[C@]12CCC(=O)C[C@@H]1CC[C@@H]1[C@@H]2CC[C@]2(C)[C@@H](O)CC[C@@]12C
REMARK SMILES IDX 1 1 2 2 3 3 4 4 5 5 6 6 7 7 8 8 9 9 10 10 11 11 12 12 13 13
REMARK SMILES IDX 14 14 15 15 16 16 17 17 19 18 20 19 21 20 22 21 18 22
REMARK H PARENT 18 23
ROOT
ATOM      1  C   UNL     1      28.620   3.550   6.906  1.00  0.00     0.012 C 
ATOM      2  C   UNL     1      28.521   2.379   5.978  1.00  0.00    -0.026 C 
ATOM      3  C   UNL     1      29.427   1.244   6.520  1.00  0.00     0.015 C 
ATOM      4  C   UNL     1      30.933   1.522   6.459  1.00  0.00     0.076 C 
ATOM      5  C   UNL     1      31.116   2.911   6.012  1.00  0.00     0.133 C 
ATOM      6  O   UNL     1      31.835   3.672   6.699  1.00  0.00    -0.300 OA
ATOM      7  C   UNL     1      30.482   3.440   4.755  1.00  0.00     0.079 C 
ATOM      8  C   UNL     1      29.198   2.666   4.627  1.00  0.00     0.002 C 
ATOM      9  C   UNL     1      28.311   2.790   3.408  1.00  0.00     0.005 C 
ATOM     10  C   UNL     1      27.258   3.815   3.830  1.00  0.00     0.005 C 
ATOM     11  C   UNL     1      26.490   3.214   4.948  1.00  0.00    -0.001 C 
ATOM     12  C   UNL     1      27.156   2.026   5.621  1.00  0.00    -0.001 C 
ATOM     13  C   UNL     1      26.364   1.578   6.836  1.00  0.00     0.005 C 
ATOM     14  C   UNL     1      24.930   1.177   6.442  1.00  0.00     0.010 C 
ATOM     15  C   UNL     1      24.292   2.362   5.797  1.00  0.00    -0.001 C 
ATOM     16  C   UNL     1      24.153   3.395   6.911  1.00  0.00     0.015 C 
ATOM     17  C   UNL     1      22.947   2.273   5.199  1.00  0.00     0.121 C 
ATOM     18  C   UNL     1      22.858   3.652   4.464  1.00  0.00     0.033 C 
ATOM     19  C   UNL     1      24.272   4.182   4.534  1.00  0.00     0.010 C 
ATOM     20  C   UNL     1      25.087   2.820   4.627  1.00  0.00    -0.022 C 
ATOM     21  C   UNL     1      24.896   2.175   3.376  1.00  0.00     0.012 C 
ENDROOT
BRANCH  17  22
ATOM     22  O   UNL     1      22.031   2.332   6.266  1.00  0.00    -0.393 OA
ATOM     23  H   UNL     1      21.979   1.379   6.647  1.00  0.00     0.210 HD
ENDBRANCH  17  22
TORSDOF 1
