REMARK SMILES C[C@]12CCC(=O)C[C@@H]1CC[C@@H]1[C@@H]2CC[C@]2(C)[C@@H](O)CC[C@@]12C
REMARK SMILES IDX 1 1 2 2 3 3 4 4 5 5 6 6 7 7 8 8 9 9 10 10 11 11 12 12 13 13
REMARK SMILES IDX 14 14 15 15 16 16 17 17 19 18 20 19 21 20 22 21 18 22
REMARK H PARENT 18 23
ROOT
ATOM      1  C   UNL     1      29.006   3.003   6.916  1.00  0.00     0.012 C 
ATOM      2  C   UNL     1      28.554   2.486   5.624  1.00  0.00    -0.026 C 
ATOM      3  C   UNL     1      29.260   1.034   5.615  1.00  0.00     0.015 C 
ATOM      4  C   UNL     1      30.667   0.973   5.588  1.00  0.00     0.076 C 
ATOM      5  C   UNL     1      31.442   2.167   5.248  1.00  0.00     0.133 C 
ATOM      6  O   UNL     1      32.595   2.174   5.276  1.00  0.00    -0.300 OA
ATOM      7  C   UNL     1      30.696   3.359   4.796  1.00  0.00     0.079 C 
ATOM      8  C   UNL     1      29.310   3.083   4.434  1.00  0.00     0.002 C 
ATOM      9  C   UNL     1      28.578   4.240   3.875  1.00  0.00     0.005 C 
ATOM     10  C   UNL     1      27.155   3.744   3.454  1.00  0.00     0.005 C 
ATOM     11  C   UNL     1      26.475   3.250   4.674  1.00  0.00    -0.001 C 
ATOM     12  C   UNL     1      27.192   2.055   5.326  1.00  0.00    -0.001 C 
ATOM     13  C   UNL     1      26.438   2.135   6.799  1.00  0.00     0.005 C 
ATOM     14  C   UNL     1      25.006   1.600   6.562  1.00  0.00     0.010 C 
ATOM     15  C   UNL     1      24.404   2.501   5.616  1.00  0.00    -0.001 C 
ATOM     16  C   UNL     1      23.897   3.830   6.255  1.00  0.00     0.015 C 
ATOM     17  C   UNL     1      23.035   1.960   5.065  1.00  0.00     0.121 C 
ATOM     18  C   UNL     1      22.794   2.938   3.885  1.00  0.00     0.033 C 
ATOM     19  C   UNL     1      24.130   3.673   3.730  1.00  0.00     0.010 C 
ATOM     20  C   UNL     1      25.085   2.749   4.396  1.00  0.00    -0.022 C 
ATOM     21  C   UNL     1      25.203   1.470   3.543  1.00  0.00     0.012 C 
ENDROOT
BRANCH  17  22
ATOM     22  O   UNL     1      22.047   2.224   5.973  1.00  0.00    -0.393 OA
ATOM     23  H   UNL     1      21.219   2.571   5.513  1.00  0.00     0.210 HD
ENDBRANCH  17  22
TORSDOF 1
