REMARK SMILES C[C@]12CCC(=O)C[C@@H]1CC[C@@H]1[C@@H]2CC[C@]2(C)[C@@H](O)CC[C@@]12C
REMARK SMILES IDX 1 1 2 2 3 3 4 4 5 5 6 6 7 7 8 8 9 9 10 10 11 11 12 12 13 13
REMARK SMILES IDX 14 14 15 15 16 16 17 17 19 18 20 19 21 20 22 21 18 22
REMARK H PARENT 18 23
ROOT
ATOM      1  C   UNL     1      29.105   3.309   6.827  1.00  0.00     0.012 C 
ATOM      2  C   UNL     1      28.932   2.459   5.665  1.00  0.00    -0.026 C 
ATOM      3  C   UNL     1      29.611   1.047   5.952  1.00  0.00     0.015 C 
ATOM      4  C   UNL     1      31.103   1.012   5.939  1.00  0.00     0.076 C 
ATOM      5  C   UNL     1      31.540   2.407   5.903  1.00  0.00     0.133 C 
ATOM      6  O   UNL     1      32.288   2.797   6.807  1.00  0.00    -0.300 OA
ATOM      7  C   UNL     1      31.069   3.254   4.803  1.00  0.00     0.079 C 
ATOM      8  C   UNL     1      29.656   2.842   4.372  1.00  0.00     0.002 C 
ATOM      9  C   UNL     1      28.938   3.974   3.704  1.00  0.00     0.005 C 
ATOM     10  C   UNL     1      27.527   3.540   3.382  1.00  0.00     0.005 C 
ATOM     11  C   UNL     1      26.802   3.178   4.625  1.00  0.00    -0.001 C 
ATOM     12  C   UNL     1      27.520   2.014   5.345  1.00  0.00    -0.001 C 
ATOM     13  C   UNL     1      26.833   1.787   6.705  1.00  0.00     0.005 C 
ATOM     14  C   UNL     1      25.394   1.278   6.457  1.00  0.00     0.010 C 
ATOM     15  C   UNL     1      24.721   2.343   5.644  1.00  0.00    -0.001 C 
ATOM     16  C   UNL     1      24.479   3.552   6.585  1.00  0.00     0.015 C 
ATOM     17  C   UNL     1      23.336   2.009   5.126  1.00  0.00     0.121 C 
ATOM     18  C   UNL     1      23.101   3.208   4.169  1.00  0.00     0.033 C 
ATOM     19  C   UNL     1      24.476   3.884   4.044  1.00  0.00     0.010 C 
ATOM     20  C   UNL     1      25.406   2.705   4.437  1.00  0.00    -0.022 C 
ATOM     21  C   UNL     1      25.325   1.639   3.390  1.00  0.00     0.012 C 
ENDROOT
BRANCH  17  22
ATOM     22  O   UNL     1      22.398   1.984   6.136  1.00  0.00    -0.393 OA
ATOM     23  H   UNL     1      21.526   2.368   5.915  1.00  0.00     0.210 HD
ENDBRANCH  17  22
TORSDOF 1
