REMARK SMILES C[C@]12CCC(=O)C[C@@H]1CC[C@@H]1[C@@H]2CC[C@]2(C)[C@@H](O)CC[C@@]12C
REMARK SMILES IDX 1 1 2 2 3 3 4 4 5 5 6 6 7 7 8 8 9 9 10 10 11 11 12 12 13 13
REMARK SMILES IDX 14 14 15 15 16 16 17 17 19 18 20 19 21 20 22 21 18 22
REMARK H PARENT 18 23
ROOT
ATOM      1  C   UNL     1      28.972   3.259   6.828  1.00  0.00     0.012 C 
ATOM      2  C   UNL     1      28.862   2.380   5.661  1.00  0.00    -0.026 C 
ATOM      3  C   UNL     1      29.577   1.012   5.919  1.00  0.00     0.015 C 
ATOM      4  C   UNL     1      31.085   1.017   5.906  1.00  0.00     0.076 C 
ATOM      5  C   UNL     1      31.491   2.417   5.829  1.00  0.00     0.133 C 
ATOM      6  O   UNL     1      32.264   2.878   6.687  1.00  0.00    -0.300 OA
ATOM      7  C   UNL     1      30.979   3.233   4.738  1.00  0.00     0.079 C 
ATOM      8  C   UNL     1      29.544   2.749   4.374  1.00  0.00     0.002 C 
ATOM      9  C   UNL     1      28.864   3.922   3.687  1.00  0.00     0.005 C 
ATOM     10  C   UNL     1      27.454   3.518   3.372  1.00  0.00     0.005 C 
ATOM     11  C   UNL     1      26.724   3.149   4.623  1.00  0.00    -0.001 C 
ATOM     12  C   UNL     1      27.440   1.962   5.334  1.00  0.00    -0.001 C 
ATOM     13  C   UNL     1      26.739   1.796   6.703  1.00  0.00     0.005 C 
ATOM     14  C   UNL     1      25.305   1.303   6.483  1.00  0.00     0.010 C 
ATOM     15  C   UNL     1      24.638   2.341   5.646  1.00  0.00    -0.001 C 
ATOM     16  C   UNL     1      24.450   3.595   6.607  1.00  0.00     0.015 C 
ATOM     17  C   UNL     1      23.250   2.042   5.173  1.00  0.00     0.121 C 
ATOM     18  C   UNL     1      23.037   3.242   4.170  1.00  0.00     0.033 C 
ATOM     19  C   UNL     1      24.404   3.858   4.005  1.00  0.00     0.010 C 
ATOM     20  C   UNL     1      25.332   2.677   4.417  1.00  0.00    -0.022 C 
ATOM     21  C   UNL     1      25.163   1.604   3.414  1.00  0.00     0.012 C 
ENDROOT
BRANCH  17  22
ATOM     22  O   UNL     1      22.354   2.175   6.194  1.00  0.00    -0.393 OA
ATOM     23  H   UNL     1      21.551   1.591   6.114  1.00  0.00     0.210 HD
ENDBRANCH  17  22
TORSDOF 1
