REMARK SMILES C[C@]12CC[C@H]3[C@@H](CCC4=CC(=O)CC[C@@]43C)[C@@H]1CC[C@@H]2O
REMARK SMILES IDX 1 1 2 2 3 3 4 4 5 5 6 6 7 7 8 8 9 9 10 10 11 11 12 12 13 13
REMARK SMILES IDX 14 14 15 15 16 16 17 17 18 18 19 19 20 20 21 21
REMARK H PARENT 21 22
ROOT
ATOM      1  C   UNL     1      30.382   0.283   2.636  1.00  0.00     0.014 C 
ATOM      2  C   UNL     1      29.980   0.857   3.979  1.00  0.00    -0.003 C 
ATOM      3  C   UNL     1      29.188  -0.181   4.719  1.00  0.00     0.010 C 
ATOM      4  C   UNL     1      27.852  -0.314   4.091  1.00  0.00     0.005 C 
ATOM      5  C   UNL     1      27.123   1.053   4.094  1.00  0.00     0.002 C 
ATOM      6  C   UNL     1      27.997   2.003   3.265  1.00  0.00    -0.003 C 
ATOM      7  C   UNL     1      27.246   3.357   3.238  1.00  0.00     0.008 C 
ATOM      8  C   UNL     1      25.949   3.160   2.522  1.00  0.00     0.032 C 
ATOM      9  C   UNL     1      25.093   2.131   3.129  1.00  0.00    -0.060 C 
ATOM     10  C   UNL     1      23.812   2.352   3.302  1.00  0.00     0.047 C 
ATOM     11  C   UNL     1      22.985   1.320   3.874  1.00  0.00     0.155 C 
ATOM     12  O   UNL     1      21.776   1.602   4.249  1.00  0.00    -0.295 OA
ATOM     13  C   UNL     1      23.535  -0.069   4.018  1.00  0.00     0.081 C 
ATOM     14  C   UNL     1      24.986   0.108   4.494  1.00  0.00     0.019 C 
ATOM     15  C   UNL     1      25.793   0.868   3.409  1.00  0.00    -0.008 C 
ATOM     16  C   UNL     1      25.812  -0.088   2.264  1.00  0.00     0.016 C 
ATOM     17  C   UNL     1      29.320   2.186   3.938  1.00  0.00     0.001 C 
ATOM     18  C   UNL     1      30.368   2.846   3.039  1.00  0.00     0.007 C 
ATOM     19  C   UNL     1      31.648   2.559   3.758  1.00  0.00     0.032 C 
ATOM     20  C   UNL     1      31.240   1.358   4.711  1.00  0.00     0.120 C 
ENDROOT
BRANCH  20  21
ATOM     21  O   UNL     1      32.203   0.347   4.482  1.00  0.00    -0.393 OA
ATOM     22  H   UNL     1      32.890   0.577   3.853  1.00  0.00     0.210 HD
ENDBRANCH  20  21
TORSDOF 1
