REMARK SMILES C[C@]12CC[C@H]3[C@@H](CCC4=CC(=O)CC[C@@]43C)[C@@H]1CC[C@@H]2O
REMARK SMILES IDX 1 1 2 2 3 3 4 4 5 5 6 6 7 7 8 8 9 9 10 10 11 11 12 12 13 13
REMARK SMILES IDX 14 14 15 15 16 16 17 17 18 18 19 19 20 20 21 21
REMARK H PARENT 21 22
ROOT
ATOM      1  C   UNL     1      30.755   0.387   2.728  1.00  0.00     0.014 C 
ATOM      2  C   UNL     1      30.156   0.851   3.994  1.00  0.00    -0.003 C 
ATOM      3  C   UNL     1      29.401  -0.180   4.735  1.00  0.00     0.010 C 
ATOM      4  C   UNL     1      28.030  -0.317   4.064  1.00  0.00     0.005 C 
ATOM      5  C   UNL     1      27.309   1.014   4.116  1.00  0.00     0.002 C 
ATOM      6  C   UNL     1      28.147   1.999   3.275  1.00  0.00    -0.003 C 
ATOM      7  C   UNL     1      27.362   3.343   3.311  1.00  0.00     0.008 C 
ATOM      8  C   UNL     1      26.049   3.159   2.613  1.00  0.00     0.032 C 
ATOM      9  C   UNL     1      25.225   2.089   3.269  1.00  0.00    -0.060 C 
ATOM     10  C   UNL     1      23.977   2.343   3.496  1.00  0.00     0.047 C 
ATOM     11  C   UNL     1      23.120   1.363   4.106  1.00  0.00     0.155 C 
ATOM     12  O   UNL     1      21.986   1.656   4.449  1.00  0.00    -0.295 OA
ATOM     13  C   UNL     1      23.736  -0.025   4.269  1.00  0.00     0.081 C 
ATOM     14  C   UNL     1      25.156   0.119   4.664  1.00  0.00     0.019 C 
ATOM     15  C   UNL     1      25.953   0.850   3.482  1.00  0.00    -0.008 C 
ATOM     16  C   UNL     1      25.835  -0.065   2.312  1.00  0.00     0.016 C 
ATOM     17  C   UNL     1      29.466   2.192   3.940  1.00  0.00     0.001 C 
ATOM     18  C   UNL     1      30.539   2.873   3.107  1.00  0.00     0.007 C 
ATOM     19  C   UNL     1      31.767   2.558   3.979  1.00  0.00     0.032 C 
ATOM     20  C   UNL     1      31.311   1.406   4.882  1.00  0.00     0.120 C 
ENDROOT
BRANCH  20  21
ATOM     21  O   UNL     1      32.308   0.505   5.070  1.00  0.00    -0.393 OA
ATOM     22  H   UNL     1      32.514  -0.075   4.298  1.00  0.00     0.210 HD
ENDBRANCH  20  21
TORSDOF 1
