REMARK SMILES C[C@]12CC[C@H]3[C@@H](CCC4=CC(=O)CC[C@@]43C)[C@@H]1CC[C@@H]2O
REMARK SMILES IDX 1 1 2 2 3 3 4 4 5 5 6 6 7 7 8 8 9 9 10 10 11 11 12 12 13 13
REMARK SMILES IDX 14 14 15 15 16 16 17 17 18 18 19 19 20 20 21 21
REMARK H PARENT 21 22
ROOT
ATOM      1  C   UNL     1      30.234   0.128   3.089  1.00  0.00     0.014 C 
ATOM      2  C   UNL     1      29.770   0.962   4.275  1.00  0.00    -0.003 C 
ATOM      3  C   UNL     1      28.923   0.033   5.047  1.00  0.00     0.010 C 
ATOM      4  C   UNL     1      27.772  -0.389   4.207  1.00  0.00     0.005 C 
ATOM      5  C   UNL     1      27.038   0.828   3.801  1.00  0.00     0.002 C 
ATOM      6  C   UNL     1      27.878   1.828   3.018  1.00  0.00    -0.003 C 
ATOM      7  C   UNL     1      27.013   2.940   2.515  1.00  0.00     0.008 C 
ATOM      8  C   UNL     1      26.013   3.470   3.534  1.00  0.00     0.032 C 
ATOM      9  C   UNL     1      25.078   2.231   3.751  1.00  0.00    -0.060 C 
ATOM     10  C   UNL     1      23.841   2.325   4.192  1.00  0.00     0.047 C 
ATOM     11  C   UNL     1      23.052   1.177   4.369  1.00  0.00     0.155 C 
ATOM     12  O   UNL     1      22.005   1.174   5.006  1.00  0.00    -0.295 OA
ATOM     13  C   UNL     1      23.435  -0.169   3.797  1.00  0.00     0.081 C 
ATOM     14  C   UNL     1      24.884  -0.293   4.140  1.00  0.00     0.019 C 
ATOM     15  C   UNL     1      25.617   0.883   3.423  1.00  0.00    -0.008 C 
ATOM     16  C   UNL     1      25.450   0.553   1.933  1.00  0.00     0.016 C 
ATOM     17  C   UNL     1      29.030   2.238   3.855  1.00  0.00     0.001 C 
ATOM     18  C   UNL     1      30.149   2.599   2.811  1.00  0.00     0.007 C 
ATOM     19  C   UNL     1      31.386   2.529   3.675  1.00  0.00     0.032 C 
ATOM     20  C   UNL     1      30.960   1.592   4.871  1.00  0.00     0.120 C 
ENDROOT
BRANCH  20  21
ATOM     21  O   UNL     1      31.912   0.602   5.066  1.00  0.00    -0.393 OA
ATOM     22  H   UNL     1      32.661   0.963   5.580  1.00  0.00     0.210 HD
ENDBRANCH  20  21
TORSDOF 1
