REMARK SMILES C[C@]12CC[C@H]3[C@@H](CCC4=CC(=O)CC[C@@]43C)[C@@H]1CC[C@@H]2O
REMARK SMILES IDX 1 1 2 2 3 3 4 4 5 5 6 6 7 7 8 8 9 9 10 10 11 11 12 12 13 13
REMARK SMILES IDX 14 14 15 15 16 16 17 17 18 18 19 19 20 20 21 21
REMARK H PARENT 21 22
ROOT
ATOM      1  C   UNL     1      30.117   0.362   2.716  1.00  0.00     0.014 C 
ATOM      2  C   UNL     1      29.913   0.930   4.128  1.00  0.00    -0.003 C 
ATOM      3  C   UNL     1      29.196  -0.101   4.955  1.00  0.00     0.010 C 
ATOM      4  C   UNL     1      27.825  -0.256   4.363  1.00  0.00     0.005 C 
ATOM      5  C   UNL     1      27.044   0.963   4.206  1.00  0.00     0.002 C 
ATOM      6  C   UNL     1      27.841   1.957   3.439  1.00  0.00    -0.003 C 
ATOM      7  C   UNL     1      27.180   3.234   3.148  1.00  0.00     0.008 C 
ATOM      8  C   UNL     1      25.845   2.983   2.421  1.00  0.00     0.032 C 
ATOM      9  C   UNL     1      25.018   2.074   3.301  1.00  0.00    -0.060 C 
ATOM     10  C   UNL     1      23.745   2.520   3.608  1.00  0.00     0.047 C 
ATOM     11  C   UNL     1      23.062   1.507   4.442  1.00  0.00     0.155 C 
ATOM     12  O   UNL     1      22.195   2.061   5.096  1.00  0.00    -0.295 OA
ATOM     13  C   UNL     1      23.535   0.155   4.404  1.00  0.00     0.081 C 
ATOM     14  C   UNL     1      24.927  -0.154   4.427  1.00  0.00     0.019 C 
ATOM     15  C   UNL     1      25.683   0.803   3.485  1.00  0.00    -0.008 C 
ATOM     16  C   UNL     1      25.997   0.152   2.196  1.00  0.00     0.016 C 
ATOM     17  C   UNL     1      29.205   2.237   4.083  1.00  0.00     0.001 C 
ATOM     18  C   UNL     1      30.108   3.002   3.228  1.00  0.00     0.007 C 
ATOM     19  C   UNL     1      31.504   2.654   3.804  1.00  0.00     0.032 C 
ATOM     20  C   UNL     1      31.212   1.410   4.690  1.00  0.00     0.120 C 
ENDROOT
BRANCH  20  21
ATOM     21  O   UNL     1      32.255   0.496   4.413  1.00  0.00    -0.393 OA
ATOM     22  H   UNL     1      32.471   0.005   5.227  1.00  0.00     0.210 HD
ENDBRANCH  20  21
TORSDOF 1
