REMARK SMILES C[C@]12CC[C@H]3[C@@H](CCC4=CC(=O)CC[C@@]43C)[C@@H]1CC[C@@H]2O
REMARK SMILES IDX 1 1 2 2 3 3 4 4 5 5 6 6 7 7 8 8 9 9 10 10 11 11 12 12 13 13
REMARK SMILES IDX 14 14 15 15 16 16 17 17 18 18 19 19 20 20 21 21
REMARK H PARENT 21 22
ROOT
ATOM      1  C   UNL     1      30.224   0.453   2.836  1.00  0.00     0.014 C 
ATOM      2  C   UNL     1      29.642   0.922   4.163  1.00  0.00    -0.003 C 
ATOM      3  C   UNL     1      28.936  -0.114   4.900  1.00  0.00     0.010 C 
ATOM      4  C   UNL     1      27.577  -0.245   4.147  1.00  0.00     0.005 C 
ATOM      5  C   UNL     1      26.799   1.060   4.119  1.00  0.00     0.002 C 
ATOM      6  C   UNL     1      27.708   2.041   3.430  1.00  0.00    -0.003 C 
ATOM      7  C   UNL     1      27.033   3.389   3.138  1.00  0.00     0.008 C 
ATOM      8  C   UNL     1      25.811   3.070   2.213  1.00  0.00     0.032 C 
ATOM      9  C   UNL     1      24.968   2.145   3.144  1.00  0.00    -0.060 C 
ATOM     10  C   UNL     1      23.986   2.627   3.750  1.00  0.00     0.047 C 
ATOM     11  C   UNL     1      23.212   1.780   4.656  1.00  0.00     0.155 C 
ATOM     12  O   UNL     1      22.028   1.972   4.975  1.00  0.00    -0.295 OA
ATOM     13  C   UNL     1      24.008   0.563   5.180  1.00  0.00     0.081 C 
ATOM     14  C   UNL     1      24.559  -0.107   3.977  1.00  0.00     0.019 C 
ATOM     15  C   UNL     1      25.623   0.758   3.295  1.00  0.00    -0.008 C 
ATOM     16  C   UNL     1      25.869   0.152   1.980  1.00  0.00     0.016 C 
ATOM     17  C   UNL     1      28.961   2.249   4.107  1.00  0.00     0.001 C 
ATOM     18  C   UNL     1      30.039   2.950   3.310  1.00  0.00     0.007 C 
ATOM     19  C   UNL     1      31.323   2.632   4.175  1.00  0.00     0.032 C 
ATOM     20  C   UNL     1      30.857   1.405   5.007  1.00  0.00     0.120 C 
ENDROOT
BRANCH  20  21
ATOM     21  O   UNL     1      31.824   0.467   4.875  1.00  0.00    -0.393 OA
ATOM     22  H   UNL     1      32.637   0.765   4.376  1.00  0.00     0.210 HD
ENDBRANCH  20  21
TORSDOF 1
