REMARK SMILES C[C@]12CC[C@H]3[C@@H](CCC4=CC(=O)CC[C@@]43C)[C@@H]1CC[C@@H]2O
REMARK SMILES IDX 1 1 2 2 3 3 4 4 5 5 6 6 7 7 8 8 9 9 10 10 11 11 12 12 13 13
REMARK SMILES IDX 14 14 15 15 16 16 17 17 18 18 19 19 20 20 21 21
REMARK H PARENT 21 22
ROOT
ATOM      1  C   UNL     1      29.691   1.447   4.258  1.00  0.00     0.014 C 
ATOM      2  C   UNL     1      29.487   2.015   5.670  1.00  0.00    -0.003 C 
ATOM      3  C   UNL     1      28.770   0.984   6.497  1.00  0.00     0.010 C 
ATOM      4  C   UNL     1      27.399   0.829   5.905  1.00  0.00     0.005 C 
ATOM      5  C   UNL     1      26.618   2.048   5.748  1.00  0.00     0.002 C 
ATOM      6  C   UNL     1      27.415   3.042   4.981  1.00  0.00    -0.003 C 
ATOM      7  C   UNL     1      26.754   4.319   4.690  1.00  0.00     0.008 C 
ATOM      8  C   UNL     1      25.419   4.068   3.963  1.00  0.00     0.032 C 
ATOM      9  C   UNL     1      24.592   3.159   4.843  1.00  0.00    -0.060 C 
ATOM     10  C   UNL     1      23.319   3.605   5.150  1.00  0.00     0.047 C 
ATOM     11  C   UNL     1      22.636   2.592   5.984  1.00  0.00     0.155 C 
ATOM     12  O   UNL     1      21.769   3.146   6.638  1.00  0.00    -0.295 OA
ATOM     13  C   UNL     1      23.109   1.240   5.946  1.00  0.00     0.081 C 
ATOM     14  C   UNL     1      24.501   0.931   5.969  1.00  0.00     0.019 C 
ATOM     15  C   UNL     1      25.257   1.888   5.027  1.00  0.00    -0.008 C 
ATOM     16  C   UNL     1      25.571   1.237   3.738  1.00  0.00     0.016 C 
ATOM     17  C   UNL     1      28.779   3.322   5.625  1.00  0.00     0.001 C 
ATOM     18  C   UNL     1      29.682   4.087   4.770  1.00  0.00     0.007 C 
ATOM     19  C   UNL     1      31.078   3.739   5.346  1.00  0.00     0.032 C 
ATOM     20  C   UNL     1      30.786   2.495   6.232  1.00  0.00     0.120 C 
ENDROOT
BRANCH  20  21
ATOM     21  O   UNL     1      31.829   1.581   5.955  1.00  0.00    -0.393 OA
ATOM     22  H   UNL     1      32.045   1.090   6.769  1.00  0.00     0.210 HD
ENDBRANCH  20  21
TORSDOF 1
