REMARK SMILES C[C@]12CC[C@H]3[C@@H](CCC4=CC(=O)CC[C@@]43C)[C@@H]1CC[C@@H]2O
REMARK SMILES IDX 1 1 2 2 3 3 4 4 5 5 6 6 7 7 8 8 9 9 10 10 11 11 12 12 13 13
REMARK SMILES IDX 14 14 15 15 16 16 17 17 18 18 19 19 20 20 21 21
REMARK H PARENT 21 22
ROOT
ATOM      1  C   UNL     1      29.798   1.538   4.378  1.00  0.00     0.014 C 
ATOM      2  C   UNL     1      29.216   2.007   5.705  1.00  0.00    -0.003 C 
ATOM      3  C   UNL     1      28.510   0.971   6.442  1.00  0.00     0.010 C 
ATOM      4  C   UNL     1      27.151   0.840   5.689  1.00  0.00     0.005 C 
ATOM      5  C   UNL     1      26.373   2.145   5.661  1.00  0.00     0.002 C 
ATOM      6  C   UNL     1      27.282   3.126   4.972  1.00  0.00    -0.003 C 
ATOM      7  C   UNL     1      26.607   4.474   4.680  1.00  0.00     0.008 C 
ATOM      8  C   UNL     1      25.385   4.155   3.755  1.00  0.00     0.032 C 
ATOM      9  C   UNL     1      24.542   3.230   4.686  1.00  0.00    -0.060 C 
ATOM     10  C   UNL     1      23.560   3.712   5.292  1.00  0.00     0.047 C 
ATOM     11  C   UNL     1      22.786   2.865   6.198  1.00  0.00     0.155 C 
ATOM     12  O   UNL     1      21.602   3.057   6.517  1.00  0.00    -0.295 OA
ATOM     13  C   UNL     1      23.582   1.648   6.722  1.00  0.00     0.081 C 
ATOM     14  C   UNL     1      24.133   0.978   5.519  1.00  0.00     0.019 C 
ATOM     15  C   UNL     1      25.197   1.843   4.837  1.00  0.00    -0.008 C 
ATOM     16  C   UNL     1      25.443   1.237   3.522  1.00  0.00     0.016 C 
ATOM     17  C   UNL     1      28.535   3.334   5.649  1.00  0.00     0.001 C 
ATOM     18  C   UNL     1      29.613   4.035   4.852  1.00  0.00     0.007 C 
ATOM     19  C   UNL     1      30.897   3.717   5.717  1.00  0.00     0.032 C 
ATOM     20  C   UNL     1      30.431   2.490   6.549  1.00  0.00     0.120 C 
ENDROOT
BRANCH  20  21
ATOM     21  O   UNL     1      31.398   1.552   6.417  1.00  0.00    -0.393 OA
ATOM     22  H   UNL     1      32.211   1.850   5.918  1.00  0.00     0.210 HD
ENDBRANCH  20  21
TORSDOF 1
