REMARK SMILES C[C@]12CCC(=O)C[C@@H]1CC[C@@H]1[C@@H]2CC[C@]2(C)[C@@H](O)CC[C@@]12C
REMARK SMILES IDX 1 1 2 2 3 3 4 4 5 5 6 6 7 7 8 8 9 9 10 10 11 11 12 12 13 13
REMARK SMILES IDX 14 14 15 15 16 16 17 17 19 18 20 19 21 20 22 21 18 22
REMARK H PARENT 18 23
ROOT
ATOM      1  C   UNL     1      29.432   1.918   5.374  1.00  0.00     0.012 C 
ATOM      2  C   UNL     1      28.980   1.401   4.082  1.00  0.00    -0.026 C 
ATOM      3  C   UNL     1      29.686  -0.051   4.073  1.00  0.00     0.015 C 
ATOM      4  C   UNL     1      31.093  -0.112   4.046  1.00  0.00     0.076 C 
ATOM      5  C   UNL     1      31.868   1.082   3.706  1.00  0.00     0.133 C 
ATOM      6  O   UNL     1      33.021   1.089   3.734  1.00  0.00    -0.300 OA
ATOM      7  C   UNL     1      31.122   2.274   3.254  1.00  0.00     0.079 C 
ATOM      8  C   UNL     1      29.736   1.998   2.892  1.00  0.00     0.002 C 
ATOM      9  C   UNL     1      29.004   3.155   2.333  1.00  0.00     0.005 C 
ATOM     10  C   UNL     1      27.581   2.659   1.912  1.00  0.00     0.005 C 
ATOM     11  C   UNL     1      26.901   2.165   3.132  1.00  0.00    -0.001 C 
ATOM     12  C   UNL     1      27.618   0.970   3.784  1.00  0.00    -0.001 C 
ATOM     13  C   UNL     1      26.864   1.050   5.257  1.00  0.00     0.005 C 
ATOM     14  C   UNL     1      25.432   0.515   5.020  1.00  0.00     0.010 C 
ATOM     15  C   UNL     1      24.830   1.416   4.074  1.00  0.00    -0.001 C 
ATOM     16  C   UNL     1      24.323   2.745   4.713  1.00  0.00     0.015 C 
ATOM     17  C   UNL     1      23.461   0.875   3.523  1.00  0.00     0.121 C 
ATOM     18  C   UNL     1      23.220   1.853   2.343  1.00  0.00     0.033 C 
ATOM     19  C   UNL     1      24.556   2.588   2.188  1.00  0.00     0.010 C 
ATOM     20  C   UNL     1      25.511   1.664   2.854  1.00  0.00    -0.022 C 
ATOM     21  C   UNL     1      25.629   0.385   2.001  1.00  0.00     0.012 C 
ENDROOT
BRANCH  17  22
ATOM     22  O   UNL     1      22.473   1.139   4.431  1.00  0.00    -0.393 OA
ATOM     23  H   UNL     1      21.645   1.486   3.971  1.00  0.00     0.210 HD
ENDBRANCH  17  22
TORSDOF 1
