REMARK SMILES C[C@]12CCC(=O)C[C@@H]1CC[C@@H]1[C@@H]2CC[C@]2(C)[C@@H](O)CC[C@@]12C
REMARK SMILES IDX 1 1 2 2 3 3 4 4 5 5 6 6 7 7 8 8 9 9 10 10 11 11 12 12 13 13
REMARK SMILES IDX 14 14 15 15 16 16 17 17 19 18 20 19 21 20 22 21 18 22
REMARK H PARENT 18 23
ROOT
ATOM      1  C   UNL     1      29.398   2.174   5.286  1.00  0.00     0.012 C 
ATOM      2  C   UNL     1      29.288   1.295   4.119  1.00  0.00    -0.026 C 
ATOM      3  C   UNL     1      30.003  -0.073   4.377  1.00  0.00     0.015 C 
ATOM      4  C   UNL     1      31.511  -0.068   4.364  1.00  0.00     0.076 C 
ATOM      5  C   UNL     1      31.917   1.332   4.287  1.00  0.00     0.133 C 
ATOM      6  O   UNL     1      32.690   1.793   5.145  1.00  0.00    -0.300 OA
ATOM      7  C   UNL     1      31.405   2.148   3.196  1.00  0.00     0.079 C 
ATOM      8  C   UNL     1      29.970   1.664   2.832  1.00  0.00     0.002 C 
ATOM      9  C   UNL     1      29.290   2.837   2.145  1.00  0.00     0.005 C 
ATOM     10  C   UNL     1      27.880   2.433   1.830  1.00  0.00     0.005 C 
ATOM     11  C   UNL     1      27.150   2.064   3.081  1.00  0.00    -0.001 C 
ATOM     12  C   UNL     1      27.866   0.877   3.792  1.00  0.00    -0.001 C 
ATOM     13  C   UNL     1      27.165   0.711   5.161  1.00  0.00     0.005 C 
ATOM     14  C   UNL     1      25.731   0.218   4.941  1.00  0.00     0.010 C 
ATOM     15  C   UNL     1      25.064   1.256   4.104  1.00  0.00    -0.001 C 
ATOM     16  C   UNL     1      24.876   2.510   5.065  1.00  0.00     0.015 C 
ATOM     17  C   UNL     1      23.676   0.957   3.631  1.00  0.00     0.121 C 
ATOM     18  C   UNL     1      23.463   2.157   2.628  1.00  0.00     0.033 C 
ATOM     19  C   UNL     1      24.830   2.773   2.463  1.00  0.00     0.010 C 
ATOM     20  C   UNL     1      25.758   1.592   2.875  1.00  0.00    -0.022 C 
ATOM     21  C   UNL     1      25.589   0.519   1.872  1.00  0.00     0.012 C 
ENDROOT
BRANCH  17  22
ATOM     22  O   UNL     1      22.780   1.090   4.652  1.00  0.00    -0.393 OA
ATOM     23  H   UNL     1      21.977   0.506   4.572  1.00  0.00     0.210 HD
ENDBRANCH  17  22
TORSDOF 1
