REMARK SMILES C[C@]12CCC(=O)C[C@@H]1CC[C@@H]1[C@@H]2CC[C@]2(C)[C@@H](O)CC[C@@]12C
REMARK SMILES IDX 1 1 2 2 3 3 4 4 5 5 6 6 7 7 8 8 9 9 10 10 11 11 12 12 13 13
REMARK SMILES IDX 14 14 15 15 16 16 17 17 19 18 20 19 21 20 22 21 18 22
REMARK H PARENT 18 23
ROOT
ATOM      1  C   UNL     1      29.409   2.275   5.256  1.00  0.00     0.012 C 
ATOM      2  C   UNL     1      29.238   1.361   4.129  1.00  0.00    -0.026 C 
ATOM      3  C   UNL     1      29.953  -0.015   4.448  1.00  0.00     0.015 C 
ATOM      4  C   UNL     1      31.463  -0.008   4.434  1.00  0.00     0.076 C 
ATOM      5  C   UNL     1      31.882   1.388   4.378  1.00  0.00     0.133 C 
ATOM      6  O   UNL     1      32.638   1.816   5.246  1.00  0.00    -0.300 OA
ATOM      7  C   UNL     1      31.347   2.190   3.257  1.00  0.00     0.079 C 
ATOM      8  C   UNL     1      29.943   1.728   2.837  1.00  0.00     0.002 C 
ATOM      9  C   UNL     1      29.254   2.890   2.170  1.00  0.00     0.005 C 
ATOM     10  C   UNL     1      27.815   2.481   1.856  1.00  0.00     0.005 C 
ATOM     11  C   UNL     1      27.111   2.086   3.098  1.00  0.00    -0.001 C 
ATOM     12  C   UNL     1      27.834   0.925   3.802  1.00  0.00    -0.001 C 
ATOM     13  C   UNL     1      27.147   0.699   5.171  1.00  0.00     0.005 C 
ATOM     14  C   UNL     1      25.708   0.187   4.937  1.00  0.00     0.010 C 
ATOM     15  C   UNL     1      25.047   1.266   4.137  1.00  0.00    -0.001 C 
ATOM     16  C   UNL     1      24.800   2.409   5.109  1.00  0.00     0.015 C 
ATOM     17  C   UNL     1      23.654   0.938   3.599  1.00  0.00     0.121 C 
ATOM     18  C   UNL     1      23.426   2.172   2.674  1.00  0.00     0.033 C 
ATOM     19  C   UNL     1      24.785   2.803   2.527  1.00  0.00     0.010 C 
ATOM     20  C   UNL     1      25.723   1.624   2.914  1.00  0.00    -0.022 C 
ATOM     21  C   UNL     1      25.577   0.563   1.847  1.00  0.00     0.012 C 
ENDROOT
BRANCH  17  22
ATOM     22  O   UNL     1      22.753   1.015   4.609  1.00  0.00    -0.393 OA
ATOM     23  H   UNL     1      22.029   1.683   4.443  1.00  0.00     0.210 HD
ENDBRANCH  17  22
TORSDOF 1
