REMARK SMILES C[C@]12CCC(=O)C[C@@H]1CC[C@@H]1[C@@H]2CC[C@]2(C)[C@@H](O)CC[C@@]12C
REMARK SMILES IDX 1 1 2 2 3 3 4 4 5 5 6 6 7 7 8 8 9 9 10 10 11 11 12 12 13 13
REMARK SMILES IDX 14 14 15 15 16 16 17 17 19 18 20 19 21 20 22 21 18 22
REMARK H PARENT 18 23
ROOT
ATOM      1  C   UNL     1      29.046   2.465   5.364  1.00  0.00     0.012 C 
ATOM      2  C   UNL     1      28.947   1.294   4.436  1.00  0.00    -0.026 C 
ATOM      3  C   UNL     1      29.853   0.159   4.978  1.00  0.00     0.015 C 
ATOM      4  C   UNL     1      31.359   0.437   4.917  1.00  0.00     0.076 C 
ATOM      5  C   UNL     1      31.542   1.826   4.470  1.00  0.00     0.133 C 
ATOM      6  O   UNL     1      32.261   2.587   5.157  1.00  0.00    -0.300 OA
ATOM      7  C   UNL     1      30.908   2.355   3.213  1.00  0.00     0.079 C 
ATOM      8  C   UNL     1      29.624   1.581   3.085  1.00  0.00     0.002 C 
ATOM      9  C   UNL     1      28.737   1.705   1.866  1.00  0.00     0.005 C 
ATOM     10  C   UNL     1      27.684   2.730   2.288  1.00  0.00     0.005 C 
ATOM     11  C   UNL     1      26.916   2.129   3.406  1.00  0.00    -0.001 C 
ATOM     12  C   UNL     1      27.582   0.941   4.079  1.00  0.00    -0.001 C 
ATOM     13  C   UNL     1      26.790   0.493   5.294  1.00  0.00     0.005 C 
ATOM     14  C   UNL     1      25.356   0.092   4.900  1.00  0.00     0.010 C 
ATOM     15  C   UNL     1      24.718   1.277   4.255  1.00  0.00    -0.001 C 
ATOM     16  C   UNL     1      24.579   2.310   5.369  1.00  0.00     0.015 C 
ATOM     17  C   UNL     1      23.373   1.188   3.657  1.00  0.00     0.121 C 
ATOM     18  C   UNL     1      23.284   2.567   2.922  1.00  0.00     0.033 C 
ATOM     19  C   UNL     1      24.698   3.097   2.992  1.00  0.00     0.010 C 
ATOM     20  C   UNL     1      25.513   1.735   3.085  1.00  0.00    -0.022 C 
ATOM     21  C   UNL     1      25.322   1.090   1.834  1.00  0.00     0.012 C 
ENDROOT
BRANCH  17  22
ATOM     22  O   UNL     1      22.457   1.247   4.724  1.00  0.00    -0.393 OA
ATOM     23  H   UNL     1      22.405   0.294   5.105  1.00  0.00     0.210 HD
ENDBRANCH  17  22
TORSDOF 1
