REMARK SMILES CCCCCc1cc(O)c2c(c1)OC(C)(C)[C@@H]1CCC(C)=C[C@@H]21
REMARK SMILES IDX 4 1 3 2 2 3 1 4 5 5 6 6 7 7 12 8 8 9 11 10 10 11 13 12 23 13
REMARK SMILES IDX 14 14 22 15 17 16 20 17 18 18 19 19 15 20 16 21 21 22 9 23
REMARK H PARENT 9 24
ROOT
ATOM      1  C   UNL     1      30.838   1.301   4.589  1.00  0.00     0.005 C 
ENDROOT
BRANCH   1   2
ATOM      2  C   UNL     1      31.142   2.573   5.313  1.00  0.00     0.000 C 
BRANCH   2   3
ATOM      3  C   UNL     1      32.433   2.348   6.026  1.00  0.00    -0.003 C 
ATOM      4  C   UNL     1      32.808   3.580   6.776  1.00  0.00     0.004 C 
ENDBRANCH   2   3
ENDBRANCH   1   2
BRANCH   1   5
ATOM      5  C   UNL     1      29.622   1.325   3.798  1.00  0.00     0.036 C 
BRANCH   5   6
ATOM      6  C   UNL     1      28.375   1.621   4.484  1.00  0.00    -0.041 A 
ATOM      7  C   UNL     1      27.835   0.622   5.291  1.00  0.00     0.050 A 
ATOM      8  C   UNL     1      27.678   2.813   4.243  1.00  0.00     0.050 A 
ATOM      9  C   UNL     1      26.582   0.816   5.853  1.00  0.00     0.123 A 
ATOM     10  C   UNL     1      26.411   3.001   4.815  1.00  0.00     0.127 A 
ATOM     11  C   UNL     1      25.864   1.996   5.606  1.00  0.00     0.043 A 
ATOM     12  O   UNL     1      25.816   4.239   4.557  1.00  0.00    -0.487 OA
ATOM     13  C   UNL     1      24.553   2.236   6.251  1.00  0.00     0.056 C 
ATOM     14  C   UNL     1      24.537   4.539   5.131  1.00  0.00     0.107 C 
ATOM     15  C   UNL     1      23.681   0.994   5.768  1.00  0.00    -0.019 C 
ATOM     16  C   UNL     1      23.848   3.289   5.453  1.00  0.00     0.044 C 
ATOM     17  C   UNL     1      22.384   1.077   5.861  1.00  0.00    -0.077 C 
ATOM     18  C   UNL     1      22.486   3.548   6.067  1.00  0.00     0.013 C 
ATOM     19  C   UNL     1      21.767   2.299   6.409  1.00  0.00     0.031 C 
ATOM     20  C   UNL     1      23.808   5.013   3.735  1.00  0.00     0.056 C 
ATOM     21  C   UNL     1      24.469   5.752   5.931  1.00  0.00     0.056 C 
ATOM     22  C   UNL     1      21.518  -0.052   5.327  1.00  0.00     0.039 C 
BRANCH   9  23
ATOM     23  O   UNL     1      25.969  -0.079   6.678  1.00  0.00    -0.507 OA
ATOM     24  H   UNL     1      26.199  -1.070   6.696  1.00  0.00     0.293 HD
ENDBRANCH   9  23
ENDBRANCH   5   6
ENDBRANCH   1   5
TORSDOF 5
