REMARK SMILES CCCCCc1cc(O)c2c(c1)OC(C)(C)[C@@H]1CCC(C)=C[C@@H]21
REMARK SMILES IDX 4 1 3 2 2 3 1 4 5 5 6 6 7 7 12 8 8 9 11 10 10 11 13 12 23 13
REMARK SMILES IDX 14 14 22 15 17 16 20 17 18 18 19 19 15 20 16 21 21 22 9 23
REMARK H PARENT 9 24
ROOT
ATOM      1  C   UNL     1      30.570   2.475   5.989  1.00  0.00     0.005 C 
ENDROOT
BRANCH   1   2
ATOM      2  C   UNL     1      31.989   2.385   5.460  1.00  0.00     0.000 C 
BRANCH   2   3
ATOM      3  C   UNL     1      32.095   1.184   4.519  1.00  0.00    -0.003 C 
ATOM      4  C   UNL     1      33.521   1.020   4.022  1.00  0.00     0.004 C 
ENDBRANCH   2   3
ENDBRANCH   1   2
BRANCH   1   5
ATOM      5  C   UNL     1      29.628   2.596   4.849  1.00  0.00     0.036 C 
BRANCH   5   6
ATOM      6  C   UNL     1      28.194   2.615   5.254  1.00  0.00    -0.041 A 
ATOM      7  C   UNL     1      27.682   1.398   5.591  1.00  0.00     0.050 A 
ATOM      8  C   UNL     1      27.421   3.725   5.052  1.00  0.00     0.050 A 
ATOM      9  C   UNL     1      26.278   1.237   5.741  1.00  0.00     0.123 A 
ATOM     10  C   UNL     1      26.025   3.556   5.201  1.00  0.00     0.127 A 
ATOM     11  C   UNL     1      25.414   2.384   5.516  1.00  0.00     0.043 A 
ATOM     12  O   UNL     1      25.304   4.766   5.075  1.00  0.00    -0.487 OA
ATOM     13  C   UNL     1      23.948   2.258   5.617  1.00  0.00     0.056 C 
ATOM     14  C   UNL     1      23.823   4.729   5.346  1.00  0.00     0.107 C 
ATOM     15  C   UNL     1      23.400   0.933   5.238  1.00  0.00    -0.019 C 
ATOM     16  C   UNL     1      23.423   3.392   4.890  1.00  0.00     0.044 C 
ATOM     17  C   UNL     1      22.202   0.691   4.648  1.00  0.00    -0.077 C 
ATOM     18  C   UNL     1      21.848   3.221   4.945  1.00  0.00     0.013 C 
ATOM     19  C   UNL     1      21.449   1.846   4.343  1.00  0.00     0.031 C 
ATOM     20  C   UNL     1      23.582   5.038   6.733  1.00  0.00     0.056 C 
ATOM     21  C   UNL     1      23.347   5.879   4.495  1.00  0.00     0.056 C 
ATOM     22  C   UNL     1      21.856  -0.741   4.272  1.00  0.00     0.039 C 
BRANCH   9  23
ATOM     23  O   UNL     1      25.934  -0.033   6.093  1.00  0.00    -0.507 OA
ATOM     24  H   UNL     1      26.330  -0.756   5.555  1.00  0.00     0.293 HD
ENDBRANCH   9  23
ENDBRANCH   5   6
ENDBRANCH   1   5
TORSDOF 5
