REMARK SMILES CCCCCc1cc(O)c2c(c1)OC(C)(C)[C@@H]1CCC(C)=C[C@@H]21
REMARK SMILES IDX 4 1 3 2 2 3 1 4 5 5 6 6 7 7 12 8 8 9 11 10 10 11 13 12 23 13
REMARK SMILES IDX 14 14 22 15 17 16 20 17 18 18 19 19 15 20 16 21 21 22 9 23
REMARK H PARENT 9 24
ROOT
ATOM      1  C   UNL     1      24.297   0.024   6.049  1.00  0.00     0.005 C 
ENDROOT
BRANCH   1   2
ATOM      2  C   UNL     1      24.203   1.545   5.988  1.00  0.00     0.000 C 
BRANCH   2   3
ATOM      3  C   UNL     1      23.458   2.024   4.745  1.00  0.00    -0.003 C 
ATOM      4  C   UNL     1      23.369   3.544   4.688  1.00  0.00     0.004 C 
ENDBRANCH   2   3
ENDBRANCH   1   2
BRANCH   1   5
ATOM      5  C   UNL     1      25.045  -0.463   7.297  1.00  0.00     0.036 C 
BRANCH   5   6
ATOM      6  C   UNL     1      26.479  -0.020   7.281  1.00  0.00    -0.041 A 
ATOM      7  C   UNL     1      26.909   1.047   8.057  1.00  0.00     0.050 A 
ATOM      8  C   UNL     1      27.404  -0.668   6.484  1.00  0.00     0.050 A 
ATOM      9  C   UNL     1      28.223   1.488   8.000  1.00  0.00     0.123 A 
ATOM     10  C   UNL     1      28.728  -0.240   6.430  1.00  0.00     0.127 A 
ATOM     11  C   UNL     1      29.149   0.885   7.144  1.00  0.00     0.043 A 
ATOM     12  O   UNL     1      29.551  -0.994   5.654  1.00  0.00    -0.487 OA
ATOM     13  C   UNL     1      30.575   1.363   7.015  1.00  0.00     0.056 C 
ATOM     14  C   UNL     1      30.964  -0.822   5.811  1.00  0.00     0.107 C 
ATOM     15  C   UNL     1      30.724   2.852   6.843  1.00  0.00    -0.019 C 
ATOM     16  C   UNL     1      31.247   0.686   5.816  1.00  0.00     0.044 C 
ATOM     17  C   UNL     1      31.724   3.405   6.171  1.00  0.00    -0.077 C 
ATOM     18  C   UNL     1      32.712   1.108   5.798  1.00  0.00     0.013 C 
ATOM     19  C   UNL     1      32.787   2.600   5.472  1.00  0.00     0.031 C 
ATOM     20  C   UNL     1      31.420  -1.531   7.090  1.00  0.00     0.056 C 
ATOM     21  C   UNL     1      31.575  -1.513   4.590  1.00  0.00     0.056 C 
ATOM     22  C   UNL     1      31.863   4.891   6.027  1.00  0.00     0.039 C 
BRANCH   9  23
ATOM     23  O   UNL     1      28.633   2.515   8.804  1.00  0.00    -0.507 OA
ATOM     24  H   UNL     1      27.890   2.801   9.349  1.00  0.00     0.293 HD
ENDBRANCH   9  23
ENDBRANCH   5   6
ENDBRANCH   1   5
TORSDOF 5
