REMARK SMILES CCCCCc1cc(O)c2c(c1)OC(C)(C)[C@@H]1CCC(C)=C[C@@H]21
REMARK SMILES IDX 4 1 3 2 2 3 1 4 5 5 6 6 7 7 12 8 8 9 11 10 10 11 13 12 23 13
REMARK SMILES IDX 14 14 22 15 17 16 20 17 18 18 19 19 15 20 16 21 21 22 9 23
REMARK H PARENT 9 24
ROOT
ATOM      1  C   UNL     1      31.927   2.780   6.051  1.00  0.00     0.005 C 
ENDROOT
BRANCH   1   2
ATOM      2  C   UNL     1      32.018   1.258   5.985  1.00  0.00     0.000 C 
BRANCH   2   3
ATOM      3  C   UNL     1      32.763   0.783   4.740  1.00  0.00    -0.003 C 
ATOM      4  C   UNL     1      32.850  -0.737   4.677  1.00  0.00     0.004 C 
ENDBRANCH   2   3
ENDBRANCH   1   2
BRANCH   1   5
ATOM      5  C   UNL     1      31.180   3.263   7.301  1.00  0.00     0.036 C 
BRANCH   5   6
ATOM      6  C   UNL     1      29.745   2.822   7.284  1.00  0.00    -0.041 A 
ATOM      7  C   UNL     1      29.313   1.756   8.060  1.00  0.00     0.050 A 
ATOM      8  C   UNL     1      28.822   3.471   6.486  1.00  0.00     0.050 A 
ATOM      9  C   UNL     1      27.998   1.317   8.002  1.00  0.00     0.123 A 
ATOM     10  C   UNL     1      27.497   3.045   6.431  1.00  0.00     0.127 A 
ATOM     11  C   UNL     1      27.074   1.921   7.145  1.00  0.00     0.043 A 
ATOM     12  O   UNL     1      26.676   3.800   5.654  1.00  0.00    -0.487 OA
ATOM     13  C   UNL     1      25.647   1.444   7.014  1.00  0.00     0.056 C 
ATOM     14  C   UNL     1      25.263   3.628   5.808  1.00  0.00     0.107 C 
ATOM     15  C   UNL     1      25.497  -0.045   6.845  1.00  0.00    -0.019 C 
ATOM     16  C   UNL     1      24.979   2.120   5.814  1.00  0.00     0.044 C 
ATOM     17  C   UNL     1      24.498  -0.598   6.170  1.00  0.00    -0.077 C 
ATOM     18  C   UNL     1      23.513   1.699   5.791  1.00  0.00     0.013 C 
ATOM     19  C   UNL     1      23.439   0.207   5.466  1.00  0.00     0.031 C 
ATOM     20  C   UNL     1      24.655   4.320   4.586  1.00  0.00     0.056 C 
ATOM     21  C   UNL     1      24.804   4.338   7.086  1.00  0.00     0.056 C 
ATOM     22  C   UNL     1      24.358  -2.084   6.029  1.00  0.00     0.039 C 
BRANCH   9  23
ATOM     23  O   UNL     1      27.587   0.290   8.807  1.00  0.00    -0.507 OA
ATOM     24  H   UNL     1      28.329   0.004   9.352  1.00  0.00     0.293 HD
ENDBRANCH   9  23
ENDBRANCH   5   6
ENDBRANCH   1   5
TORSDOF 5
