REMARK SMILES C[C@]1(O)CC[C@H]2[C@@H]3CCC4=CC(=O)CCC4=C3C=C[C@@]21C
REMARK SMILES IDX 1 1 2 2 4 3 5 4 6 5 7 6 8 7 9 8 10 9 11 10 12 11 13 12 14 13
REMARK SMILES IDX 15 14 16 15 17 16 18 17 19 18 20 19 21 20 3 21
REMARK H PARENT 3 22
ROOT
ATOM      1  C   UNL     1      23.013   4.012   6.726  1.00  0.00     0.043 C 
ATOM      2  C   UNL     1      23.200   3.052   5.628  1.00  0.00     0.071 C 
ATOM      3  C   UNL     1      23.059   1.606   6.203  1.00  0.00     0.036 C 
ATOM      4  C   UNL     1      24.374   1.000   6.022  1.00  0.00     0.008 C 
ATOM      5  C   UNL     1      25.318   2.367   5.811  1.00  0.00     0.009 C 
ATOM      6  C   UNL     1      26.530   1.784   5.281  1.00  0.00     0.024 C 
ATOM      7  C   UNL     1      27.420   0.888   5.942  1.00  0.00     0.013 C 
ATOM      8  C   UNL     1      28.201   1.383   7.048  1.00  0.00     0.036 C 
ATOM      9  C   UNL     1      29.116   2.389   6.225  1.00  0.00    -0.041 C 
ATOM     10  C   UNL     1      30.430   2.170   6.343  1.00  0.00     0.051 C 
ATOM     11  C   UNL     1      31.222   3.088   5.527  1.00  0.00     0.156 C 
ATOM     12  O   UNL     1      32.451   3.090   5.744  1.00  0.00    -0.295 OA
ATOM     13  C   UNL     1      30.550   3.933   4.523  1.00  0.00     0.085 C 
ATOM     14  C   UNL     1      29.256   4.645   5.063  1.00  0.00     0.044 C 
ATOM     15  C   UNL     1      28.470   3.337   5.329  1.00  0.00    -0.041 C 
ATOM     16  C   UNL     1      27.224   3.192   4.999  1.00  0.00    -0.041 C 
ATOM     17  C   UNL     1      26.480   4.377   4.673  1.00  0.00     0.000 C 
ATOM     18  C   UNL     1      25.044   4.313   4.602  1.00  0.00    -0.017 C 
ATOM     19  C   UNL     1      24.381   2.988   4.803  1.00  0.00     0.018 C 
ATOM     20  C   UNL     1      24.300   2.401   3.465  1.00  0.00     0.019 C 
ENDROOT
BRANCH   2  21
ATOM     21  O   UNL     1      22.096   3.084   4.721  1.00  0.00    -0.389 OA
ATOM     22  H   UNL     1      22.022   2.170   4.337  1.00  0.00     0.211 HD
ENDBRANCH   2  21
TORSDOF 1
