REMARK SMILES C[C@]1(O)CC[C@H]2[C@@H]3CCC4=CC(=O)CCC4=C3C=C[C@@]21C
REMARK SMILES IDX 1 1 2 2 4 3 5 4 6 5 7 6 8 7 9 8 10 9 11 10 12 11 13 12 14 13
REMARK SMILES IDX 15 14 16 15 17 16 18 17 19 18 20 19 21 20 3 21
REMARK H PARENT 3 22
ROOT
ATOM      1  C   UNL     1      22.790   4.372   5.812  1.00  0.00     0.043 C 
ATOM      2  C   UNL     1      23.409   3.114   5.510  1.00  0.00     0.071 C 
ATOM      3  C   UNL     1      23.206   1.932   6.497  1.00  0.00     0.036 C 
ATOM      4  C   UNL     1      24.546   1.172   6.300  1.00  0.00     0.008 C 
ATOM      5  C   UNL     1      25.485   2.369   6.122  1.00  0.00     0.009 C 
ATOM      6  C   UNL     1      26.842   1.937   5.610  1.00  0.00     0.024 C 
ATOM      7  C   UNL     1      27.601   0.982   6.412  1.00  0.00     0.013 C 
ATOM      8  C   UNL     1      28.920   0.699   5.656  1.00  0.00     0.036 C 
ATOM      9  C   UNL     1      29.598   1.999   5.475  1.00  0.00    -0.041 C 
ATOM     10  C   UNL     1      30.913   2.102   5.732  1.00  0.00     0.051 C 
ATOM     11  C   UNL     1      31.675   3.318   5.627  1.00  0.00     0.156 C 
ATOM     12  O   UNL     1      32.665   3.555   6.164  1.00  0.00    -0.295 OA
ATOM     13  C   UNL     1      30.973   4.265   4.621  1.00  0.00     0.085 C 
ATOM     14  C   UNL     1      29.558   4.507   4.972  1.00  0.00     0.044 C 
ATOM     15  C   UNL     1      28.823   3.236   5.232  1.00  0.00    -0.041 C 
ATOM     16  C   UNL     1      27.540   3.202   5.304  1.00  0.00    -0.041 C 
ATOM     17  C   UNL     1      26.748   4.455   5.204  1.00  0.00     0.000 C 
ATOM     18  C   UNL     1      25.453   4.374   5.063  1.00  0.00    -0.017 C 
ATOM     19  C   UNL     1      24.754   2.967   4.985  1.00  0.00     0.018 C 
ATOM     20  C   UNL     1      24.996   2.458   3.651  1.00  0.00     0.019 C 
ENDROOT
BRANCH   2  21
ATOM     21  O   UNL     1      22.608   2.573   4.370  1.00  0.00    -0.389 OA
ATOM     22  H   UNL     1      22.603   1.598   4.375  1.00  0.00     0.211 HD
ENDBRANCH   2  21
TORSDOF 1
