REMARK SMILES C[C@]1(O)CC[C@H]2[C@@H]3CCC4=CC(=O)CCC4=C3C=C[C@@]21C
REMARK SMILES IDX 1 1 2 2 4 3 5 4 6 5 7 6 8 7 9 8 10 9 11 10 12 11 13 12 14 13
REMARK SMILES IDX 15 14 16 15 17 16 18 17 19 18 20 19 21 20 3 21
REMARK H PARENT 3 22
ROOT
ATOM      1  C   UNL     1      23.070   4.602   6.532  1.00  0.00     0.043 C 
ATOM      2  C   UNL     1      23.246   3.366   5.846  1.00  0.00     0.071 C 
ATOM      3  C   UNL     1      23.086   2.029   6.590  1.00  0.00     0.036 C 
ATOM      4  C   UNL     1      24.330   1.286   6.135  1.00  0.00     0.008 C 
ATOM      5  C   UNL     1      25.310   2.485   5.820  1.00  0.00     0.009 C 
ATOM      6  C   UNL     1      26.479   1.965   5.169  1.00  0.00     0.024 C 
ATOM      7  C   UNL     1      27.463   0.999   5.547  1.00  0.00     0.013 C 
ATOM      8  C   UNL     1      28.431   1.276   6.657  1.00  0.00     0.036 C 
ATOM      9  C   UNL     1      29.202   2.457   6.160  1.00  0.00    -0.041 C 
ATOM     10  C   UNL     1      30.478   2.518   6.487  1.00  0.00     0.051 C 
ATOM     11  C   UNL     1      31.220   3.599   5.986  1.00  0.00     0.156 C 
ATOM     12  O   UNL     1      32.379   3.848   6.478  1.00  0.00    -0.295 OA
ATOM     13  C   UNL     1      30.627   4.410   4.854  1.00  0.00     0.085 C 
ATOM     14  C   UNL     1      29.212   4.747   5.197  1.00  0.00     0.044 C 
ATOM     15  C   UNL     1      28.465   3.444   5.399  1.00  0.00    -0.041 C 
ATOM     16  C   UNL     1      27.218   3.352   4.981  1.00  0.00    -0.041 C 
ATOM     17  C   UNL     1      26.402   4.443   4.525  1.00  0.00     0.000 C 
ATOM     18  C   UNL     1      25.044   4.377   4.452  1.00  0.00    -0.017 C 
ATOM     19  C   UNL     1      24.338   3.110   4.854  1.00  0.00     0.018 C 
ATOM     20  C   UNL     1      24.074   2.458   3.588  1.00  0.00     0.019 C 
ENDROOT
BRANCH   2  21
ATOM     21  O   UNL     1      22.033   3.232   4.964  1.00  0.00    -0.389 OA
ATOM     22  H   UNL     1      21.993   2.253   4.696  1.00  0.00     0.211 HD
ENDBRANCH   2  21
TORSDOF 1
