REMARK SMILES C[C@]1(O)CC[C@H]2[C@@H]3CCC4=CC(=O)CCC4=C3C=C[C@@]21C
REMARK SMILES IDX 1 1 2 2 4 3 5 4 6 5 7 6 8 7 9 8 10 9 11 10 12 11 13 12 14 13
REMARK SMILES IDX 15 14 16 15 17 16 18 17 19 18 20 19 21 20 3 21
REMARK H PARENT 3 22
ROOT
ATOM      1  C   UNL     1      23.689   4.119   6.620  1.00  0.00     0.043 C 
ATOM      2  C   UNL     1      23.429   3.060   5.638  1.00  0.00     0.071 C 
ATOM      3  C   UNL     1      23.134   1.666   6.163  1.00  0.00     0.036 C 
ATOM      4  C   UNL     1      24.460   0.945   6.182  1.00  0.00     0.008 C 
ATOM      5  C   UNL     1      25.451   2.042   5.888  1.00  0.00     0.009 C 
ATOM      6  C   UNL     1      26.850   1.734   5.729  1.00  0.00     0.024 C 
ATOM      7  C   UNL     1      27.496   1.114   6.981  1.00  0.00     0.013 C 
ATOM      8  C   UNL     1      28.913   0.838   6.526  1.00  0.00     0.036 C 
ATOM      9  C   UNL     1      29.561   2.075   6.095  1.00  0.00    -0.041 C 
ATOM     10  C   UNL     1      30.911   2.113   6.163  1.00  0.00     0.051 C 
ATOM     11  C   UNL     1      31.607   3.321   5.696  1.00  0.00     0.156 C 
ATOM     12  O   UNL     1      32.800   3.564   5.997  1.00  0.00    -0.295 OA
ATOM     13  C   UNL     1      30.777   4.214   4.835  1.00  0.00     0.085 C 
ATOM     14  C   UNL     1      29.514   4.546   5.486  1.00  0.00     0.044 C 
ATOM     15  C   UNL     1      28.785   3.253   5.705  1.00  0.00    -0.041 C 
ATOM     16  C   UNL     1      27.507   3.084   5.476  1.00  0.00    -0.041 C 
ATOM     17  C   UNL     1      26.750   4.160   4.892  1.00  0.00     0.000 C 
ATOM     18  C   UNL     1      25.453   4.021   4.566  1.00  0.00    -0.017 C 
ATOM     19  C   UNL     1      24.705   2.717   4.794  1.00  0.00     0.018 C 
ATOM     20  C   UNL     1      24.340   1.979   3.616  1.00  0.00     0.019 C 
ENDROOT
BRANCH   2  21
ATOM     21  O   UNL     1      22.374   3.351   4.761  1.00  0.00    -0.389 OA
ATOM     22  H   UNL     1      21.571   2.819   4.963  1.00  0.00     0.211 HD
ENDBRANCH   2  21
TORSDOF 1
