REMARK SMILES C[C@]1(O)CC[C@H]2[C@@H]3CCC4=CC(=O)CCC4=C3C=C[C@@]21C
REMARK SMILES IDX 1 1 2 2 4 3 5 4 6 5 7 6 8 7 9 8 10 9 11 10 12 11 13 12 14 13
REMARK SMILES IDX 15 14 16 15 17 16 18 17 19 18 20 19 21 20 3 21
REMARK H PARENT 3 22
ROOT
ATOM      1  C   UNL     1      23.156   4.302   6.149  1.00  0.00     0.043 C 
ATOM      2  C   UNL     1      23.445   2.945   5.687  1.00  0.00     0.071 C 
ATOM      3  C   UNL     1      23.208   1.738   6.470  1.00  0.00     0.036 C 
ATOM      4  C   UNL     1      24.540   1.005   6.305  1.00  0.00     0.008 C 
ATOM      5  C   UNL     1      25.494   2.179   6.068  1.00  0.00     0.009 C 
ATOM      6  C   UNL     1      26.850   1.767   5.685  1.00  0.00     0.024 C 
ATOM      7  C   UNL     1      27.586   0.941   6.616  1.00  0.00     0.013 C 
ATOM      8  C   UNL     1      28.947   0.656   5.957  1.00  0.00     0.036 C 
ATOM      9  C   UNL     1      29.634   1.947   5.727  1.00  0.00    -0.041 C 
ATOM     10  C   UNL     1      30.934   1.960   5.524  1.00  0.00     0.051 C 
ATOM     11  C   UNL     1      31.624   3.260   5.350  1.00  0.00     0.156 C 
ATOM     12  O   UNL     1      32.750   3.338   4.828  1.00  0.00    -0.295 OA
ATOM     13  C   UNL     1      30.866   4.477   5.845  1.00  0.00     0.085 C 
ATOM     14  C   UNL     1      29.533   4.493   5.167  1.00  0.00     0.044 C 
ATOM     15  C   UNL     1      28.860   3.154   5.470  1.00  0.00    -0.041 C 
ATOM     16  C   UNL     1      27.556   3.117   5.376  1.00  0.00    -0.041 C 
ATOM     17  C   UNL     1      26.666   4.201   4.892  1.00  0.00     0.000 C 
ATOM     18  C   UNL     1      25.389   4.049   4.637  1.00  0.00    -0.017 C 
ATOM     19  C   UNL     1      24.698   2.695   4.841  1.00  0.00     0.018 C 
ATOM     20  C   UNL     1      24.527   1.975   3.666  1.00  0.00     0.019 C 
ENDROOT
BRANCH   2  21
ATOM     21  O   UNL     1      22.385   2.796   4.601  1.00  0.00    -0.389 OA
ATOM     22  H   UNL     1      21.622   2.573   5.174  1.00  0.00     0.211 HD
ENDBRANCH   2  21
TORSDOF 1
