REMARK SMILES CCCCCc1cc(O)c2c(c1)OC(C)(C)[C@@H]1CCC(C)=C[C@@H]21
REMARK SMILES IDX 4 1 3 2 2 3 1 4 5 5 6 6 7 7 12 8 8 9 11 10 10 11 13 12 23 13
REMARK SMILES IDX 14 14 22 15 17 16 20 17 18 18 19 19 15 20 16 21 21 22 9 23
REMARK H PARENT 9 24
ROOT
ATOM      1  C   UNL     1      30.722   3.933   4.713  1.00  0.00     0.005 C 
ENDROOT
BRANCH   1   2
ATOM      2  C   UNL     1      30.813   2.411   4.647  1.00  0.00     0.000 C 
BRANCH   2   3
ATOM      3  C   UNL     1      31.559   1.936   3.402  1.00  0.00    -0.003 C 
ATOM      4  C   UNL     1      31.645   0.416   3.339  1.00  0.00     0.004 C 
ENDBRANCH   2   3
ENDBRANCH   1   2
BRANCH   1   5
ATOM      5  C   UNL     1      29.975   4.416   5.963  1.00  0.00     0.036 C 
BRANCH   5   6
ATOM      6  C   UNL     1      28.540   3.975   5.946  1.00  0.00    -0.041 A 
ATOM      7  C   UNL     1      28.108   2.909   6.722  1.00  0.00     0.050 A 
ATOM      8  C   UNL     1      27.617   4.624   5.148  1.00  0.00     0.050 A 
ATOM      9  C   UNL     1      26.793   2.470   6.664  1.00  0.00     0.123 A 
ATOM     10  C   UNL     1      26.292   4.198   5.093  1.00  0.00     0.127 A 
ATOM     11  C   UNL     1      25.870   3.074   5.807  1.00  0.00     0.043 A 
ATOM     12  O   UNL     1      25.472   4.953   4.316  1.00  0.00    -0.487 OA
ATOM     13  C   UNL     1      24.443   2.597   5.676  1.00  0.00     0.056 C 
ATOM     14  C   UNL     1      24.058   4.782   4.470  1.00  0.00     0.107 C 
ATOM     15  C   UNL     1      24.292   1.108   5.507  1.00  0.00    -0.019 C 
ATOM     16  C   UNL     1      23.774   3.274   4.476  1.00  0.00     0.044 C 
ATOM     17  C   UNL     1      23.294   0.556   4.832  1.00  0.00    -0.077 C 
ATOM     18  C   UNL     1      22.309   2.853   4.453  1.00  0.00     0.013 C 
ATOM     19  C   UNL     1      22.234   1.361   4.128  1.00  0.00     0.031 C 
ATOM     20  C   UNL     1      23.450   5.473   3.248  1.00  0.00     0.056 C 
ATOM     21  C   UNL     1      23.599   5.491   5.748  1.00  0.00     0.056 C 
ATOM     22  C   UNL     1      23.153  -0.931   4.691  1.00  0.00     0.039 C 
BRANCH   9  23
ATOM     23  O   UNL     1      26.382   1.443   7.469  1.00  0.00    -0.507 OA
ATOM     24  H   UNL     1      27.125   1.157   8.014  1.00  0.00     0.293 HD
ENDBRANCH   9  23
ENDBRANCH   5   6
ENDBRANCH   1   5
TORSDOF 5
