REMARK SMILES COC(=O)[C@@H](NC(=O)c1nn(CC2CCCCC2)c2ccccc12)C(C)(C)C
REMARK SMILES IDX 6 1 7 2 8 3 5 5 3 6 4 7 2 8 1 9 25 10 26 11 27 12 28 13 9 14
REMARK SMILES IDX 10 15 24 16 11 17 23 18 19 19 22 20 20 21 21 22 12 23 13 24
REMARK SMILES IDX 14 25 18 26 15 27 17 28 16 29
REMARK H PARENT 6 4
ROOT
ATOM      1  N   UNL     1      25.463   4.001   8.230  1.00  0.00    -0.337 N 
ATOM      2  C   UNL     1      26.541   3.135   8.205  1.00  0.00     0.273 C 
ATOM      3  O   UNL     1      26.395   2.086   7.464  1.00  0.00    -0.267 OA
ATOM      4  H   UNL     1      25.485   4.870   8.767  1.00  0.00     0.164 HD
ENDROOT
BRANCH   1   5
ATOM      5  C   UNL     1      24.226   3.743   7.473  1.00  0.00     0.198 C 
BRANCH   5   6
ATOM      6  C   UNL     1      24.020   4.777   6.440  1.00  0.00     0.328 C 
ATOM      7  O   UNL     1      24.880   5.717   6.332  1.00  0.00    -0.250 OA
BRANCH   6   8
ATOM      8  O   UNL     1      22.918   4.731   5.603  1.00  0.00    -0.467 OA
ATOM      9  C   UNL     1      22.676   5.703   4.592  1.00  0.00     0.282 C 
ENDBRANCH   6   8
ENDBRANCH   5   6
BRANCH   5  10
ATOM     10  C   UNL     1      23.070   3.559   8.402  1.00  0.00    -0.007 C 
ATOM     11  C   UNL     1      23.451   2.461   9.402  1.00  0.00     0.013 C 
ATOM     12  C   UNL     1      21.919   2.966   7.597  1.00  0.00     0.013 C 
ATOM     13  C   UNL     1      22.682   4.764   9.183  1.00  0.00     0.013 C 
ENDBRANCH   5  10
ENDBRANCH   1   5
BRANCH   2  14
ATOM     14  C   UNL     1      27.809   3.228   8.879  1.00  0.00     0.158 A 
ATOM     15  N   UNL     1      28.850   2.404   8.558  1.00  0.00    -0.166 NA
ATOM     16  C   UNL     1      28.295   4.009   9.887  1.00  0.00     0.033 A 
ATOM     17  N   UNL     1      29.897   2.672   9.322  1.00  0.00    -0.264 N 
ATOM     18  C   UNL     1      27.752   5.009  10.635  1.00  0.00     0.013 A 
ATOM     19  C   UNL     1      29.621   3.664  10.176  1.00  0.00     0.069 A 
ATOM     20  C   UNL     1      28.462   5.649  11.619  1.00  0.00     0.001 A 
ATOM     21  C   UNL     1      30.340   4.305  11.165  1.00  0.00     0.028 A 
ATOM     22  C   UNL     1      29.749   5.314  11.897  1.00  0.00     0.002 A 
BRANCH  17  23
ATOM     23  C   UNL     1      31.186   1.955   9.224  1.00  0.00     0.148 C 
BRANCH  23  24
ATOM     24  C   UNL     1      32.070   2.648   8.255  1.00  0.00     0.011 C 
ATOM     25  C   UNL     1      33.390   1.967   8.131  1.00  0.00     0.005 C 
ATOM     26  C   UNL     1      31.493   2.799   6.864  1.00  0.00     0.005 C 
ATOM     27  C   UNL     1      33.242   0.612   7.494  1.00  0.00     0.000 C 
ATOM     28  C   UNL     1      31.314   1.440   6.211  1.00  0.00     0.000 C 
ATOM     29  C   UNL     1      32.657   0.782   6.121  1.00  0.00     0.000 C 
ENDBRANCH  23  24
ENDBRANCH  17  23
ENDBRANCH   2  14
TORSDOF 7
