REMARK SMILES C[C@]1(O)CC[C@H]2[C@@H]3CCC4=CC(=O)CCC4=C3C=C[C@@]21C
REMARK SMILES IDX 1 1 2 2 4 3 5 4 6 5 7 6 8 7 9 8 10 9 11 10 12 11 13 12 14 13
REMARK SMILES IDX 15 14 16 15 17 16 18 17 19 18 20 19 21 20 3 21
REMARK H PARENT 3 22
ROOT
ATOM      1  C   UNL     1      23.217   3.370   4.937  1.00  0.00     0.043 C 
ATOM      2  C   UNL     1      23.393   2.134   4.251  1.00  0.00     0.071 C 
ATOM      3  C   UNL     1      23.233   0.797   4.995  1.00  0.00     0.036 C 
ATOM      4  C   UNL     1      24.477   0.054   4.540  1.00  0.00     0.008 C 
ATOM      5  C   UNL     1      25.457   1.253   4.225  1.00  0.00     0.009 C 
ATOM      6  C   UNL     1      26.626   0.733   3.574  1.00  0.00     0.024 C 
ATOM      7  C   UNL     1      27.610  -0.233   3.952  1.00  0.00     0.013 C 
ATOM      8  C   UNL     1      28.578   0.044   5.062  1.00  0.00     0.036 C 
ATOM      9  C   UNL     1      29.349   1.225   4.565  1.00  0.00    -0.041 C 
ATOM     10  C   UNL     1      30.625   1.286   4.892  1.00  0.00     0.051 C 
ATOM     11  C   UNL     1      31.367   2.367   4.391  1.00  0.00     0.156 C 
ATOM     12  O   UNL     1      32.526   2.616   4.883  1.00  0.00    -0.295 OA
ATOM     13  C   UNL     1      30.774   3.178   3.259  1.00  0.00     0.085 C 
ATOM     14  C   UNL     1      29.359   3.515   3.602  1.00  0.00     0.044 C 
ATOM     15  C   UNL     1      28.612   2.212   3.804  1.00  0.00    -0.041 C 
ATOM     16  C   UNL     1      27.365   2.120   3.386  1.00  0.00    -0.041 C 
ATOM     17  C   UNL     1      26.549   3.211   2.930  1.00  0.00     0.000 C 
ATOM     18  C   UNL     1      25.191   3.145   2.857  1.00  0.00    -0.017 C 
ATOM     19  C   UNL     1      24.485   1.878   3.259  1.00  0.00     0.018 C 
ATOM     20  C   UNL     1      24.221   1.226   1.993  1.00  0.00     0.019 C 
ENDROOT
BRANCH   2  21
ATOM     21  O   UNL     1      22.180   2.000   3.369  1.00  0.00    -0.389 OA
ATOM     22  H   UNL     1      22.140   1.021   3.101  1.00  0.00     0.211 HD
ENDBRANCH   2  21
TORSDOF 1
