REMARK SMILES C[C@]1(O)CC[C@H]2[C@@H]3CCC4=CC(=O)CCC4=C3C=C[C@@]21C
REMARK SMILES IDX 1 1 2 2 4 3 5 4 6 5 7 6 8 7 9 8 10 9 11 10 12 11 13 12 14 13
REMARK SMILES IDX 15 14 16 15 17 16 18 17 19 18 20 19 21 20 3 21
REMARK H PARENT 3 22
ROOT
ATOM      1  C   UNL     1      23.303   3.070   4.554  1.00  0.00     0.043 C 
ATOM      2  C   UNL     1      23.592   1.713   4.092  1.00  0.00     0.071 C 
ATOM      3  C   UNL     1      23.355   0.506   4.875  1.00  0.00     0.036 C 
ATOM      4  C   UNL     1      24.687  -0.227   4.710  1.00  0.00     0.008 C 
ATOM      5  C   UNL     1      25.641   0.947   4.473  1.00  0.00     0.009 C 
ATOM      6  C   UNL     1      26.997   0.535   4.090  1.00  0.00     0.024 C 
ATOM      7  C   UNL     1      27.733  -0.291   5.021  1.00  0.00     0.013 C 
ATOM      8  C   UNL     1      29.094  -0.576   4.362  1.00  0.00     0.036 C 
ATOM      9  C   UNL     1      29.781   0.715   4.132  1.00  0.00    -0.041 C 
ATOM     10  C   UNL     1      31.081   0.728   3.929  1.00  0.00     0.051 C 
ATOM     11  C   UNL     1      31.771   2.028   3.755  1.00  0.00     0.156 C 
ATOM     12  O   UNL     1      32.897   2.106   3.233  1.00  0.00    -0.295 OA
ATOM     13  C   UNL     1      31.013   3.245   4.250  1.00  0.00     0.085 C 
ATOM     14  C   UNL     1      29.680   3.261   3.572  1.00  0.00     0.044 C 
ATOM     15  C   UNL     1      29.007   1.922   3.875  1.00  0.00    -0.041 C 
ATOM     16  C   UNL     1      27.703   1.885   3.781  1.00  0.00    -0.041 C 
ATOM     17  C   UNL     1      26.813   2.969   3.297  1.00  0.00     0.000 C 
ATOM     18  C   UNL     1      25.536   2.817   3.042  1.00  0.00    -0.017 C 
ATOM     19  C   UNL     1      24.845   1.463   3.246  1.00  0.00     0.018 C 
ATOM     20  C   UNL     1      24.674   0.743   2.071  1.00  0.00     0.019 C 
ENDROOT
BRANCH   2  21
ATOM     21  O   UNL     1      22.532   1.564   3.006  1.00  0.00    -0.389 OA
ATOM     22  H   UNL     1      21.769   1.341   3.579  1.00  0.00     0.211 HD
ENDBRANCH   2  21
TORSDOF 1
