REMARK SMILES C[C@]1(O)CC[C@H]2[C@@H]3CCC4=CC(=O)CCC4=C3C=C[C@@]21C
REMARK SMILES IDX 1 1 2 2 4 3 5 4 6 5 7 6 8 7 9 8 10 9 11 10 12 11 13 12 14 13
REMARK SMILES IDX 15 14 16 15 17 16 18 17 19 18 20 19 21 20 3 21
REMARK H PARENT 3 22
ROOT
ATOM      1  C   UNL     1      23.160   2.780   5.131  1.00  0.00     0.043 C 
ATOM      2  C   UNL     1      23.347   1.820   4.033  1.00  0.00     0.071 C 
ATOM      3  C   UNL     1      23.206   0.374   4.608  1.00  0.00     0.036 C 
ATOM      4  C   UNL     1      24.521  -0.232   4.427  1.00  0.00     0.008 C 
ATOM      5  C   UNL     1      25.465   1.135   4.216  1.00  0.00     0.009 C 
ATOM      6  C   UNL     1      26.677   0.552   3.686  1.00  0.00     0.024 C 
ATOM      7  C   UNL     1      27.567  -0.344   4.347  1.00  0.00     0.013 C 
ATOM      8  C   UNL     1      28.348   0.151   5.453  1.00  0.00     0.036 C 
ATOM      9  C   UNL     1      29.263   1.157   4.630  1.00  0.00    -0.041 C 
ATOM     10  C   UNL     1      30.577   0.938   4.748  1.00  0.00     0.051 C 
ATOM     11  C   UNL     1      31.369   1.856   3.932  1.00  0.00     0.156 C 
ATOM     12  O   UNL     1      32.598   1.858   4.149  1.00  0.00    -0.295 OA
ATOM     13  C   UNL     1      30.697   2.701   2.928  1.00  0.00     0.085 C 
ATOM     14  C   UNL     1      29.403   3.413   3.468  1.00  0.00     0.044 C 
ATOM     15  C   UNL     1      28.617   2.105   3.734  1.00  0.00    -0.041 C 
ATOM     16  C   UNL     1      27.371   1.960   3.404  1.00  0.00    -0.041 C 
ATOM     17  C   UNL     1      26.627   3.145   3.078  1.00  0.00     0.000 C 
ATOM     18  C   UNL     1      25.191   3.081   3.007  1.00  0.00    -0.017 C 
ATOM     19  C   UNL     1      24.528   1.756   3.208  1.00  0.00     0.018 C 
ATOM     20  C   UNL     1      24.447   1.169   1.870  1.00  0.00     0.019 C 
ENDROOT
BRANCH   2  21
ATOM     21  O   UNL     1      22.243   1.852   3.126  1.00  0.00    -0.389 OA
ATOM     22  H   UNL     1      22.169   0.938   2.742  1.00  0.00     0.211 HD
ENDBRANCH   2  21
TORSDOF 1
