REMARK SMILES C[C@]1(O)CC[C@H]2[C@@H]3CCC4=CC(=O)CCC4=C3C=C[C@@]21C
REMARK SMILES IDX 1 1 2 2 4 3 5 4 6 5 7 6 8 7 9 8 10 9 11 10 12 11 13 12 14 13
REMARK SMILES IDX 15 14 16 15 17 16 18 17 19 18 20 19 21 20 3 21
REMARK H PARENT 3 22
ROOT
ATOM      1  C   UNL     1      23.836   2.887   5.025  1.00  0.00     0.043 C 
ATOM      2  C   UNL     1      23.576   1.828   4.043  1.00  0.00     0.071 C 
ATOM      3  C   UNL     1      23.281   0.434   4.568  1.00  0.00     0.036 C 
ATOM      4  C   UNL     1      24.607  -0.287   4.587  1.00  0.00     0.008 C 
ATOM      5  C   UNL     1      25.598   0.810   4.293  1.00  0.00     0.009 C 
ATOM      6  C   UNL     1      26.997   0.502   4.134  1.00  0.00     0.024 C 
ATOM      7  C   UNL     1      27.643  -0.118   5.386  1.00  0.00     0.013 C 
ATOM      8  C   UNL     1      29.060  -0.394   4.931  1.00  0.00     0.036 C 
ATOM      9  C   UNL     1      29.708   0.843   4.500  1.00  0.00    -0.041 C 
ATOM     10  C   UNL     1      31.058   0.881   4.568  1.00  0.00     0.051 C 
ATOM     11  C   UNL     1      31.754   2.089   4.101  1.00  0.00     0.156 C 
ATOM     12  O   UNL     1      32.947   2.332   4.402  1.00  0.00    -0.295 OA
ATOM     13  C   UNL     1      30.924   2.982   3.240  1.00  0.00     0.085 C 
ATOM     14  C   UNL     1      29.661   3.314   3.891  1.00  0.00     0.044 C 
ATOM     15  C   UNL     1      28.932   2.021   4.110  1.00  0.00    -0.041 C 
ATOM     16  C   UNL     1      27.654   1.852   3.881  1.00  0.00    -0.041 C 
ATOM     17  C   UNL     1      26.897   2.928   3.297  1.00  0.00     0.000 C 
ATOM     18  C   UNL     1      25.600   2.789   2.971  1.00  0.00    -0.017 C 
ATOM     19  C   UNL     1      24.852   1.485   3.199  1.00  0.00     0.018 C 
ATOM     20  C   UNL     1      24.487   0.747   2.021  1.00  0.00     0.019 C 
ENDROOT
BRANCH   2  21
ATOM     21  O   UNL     1      22.521   2.119   3.166  1.00  0.00    -0.389 OA
ATOM     22  H   UNL     1      21.718   1.587   3.368  1.00  0.00     0.211 HD
ENDBRANCH   2  21
TORSDOF 1
