REMARK SMILES C[C@]1(O)CC[C@H]2[C@@H]3CCC4=CC(=O)CCC4=C3C=C[C@@]21C
REMARK SMILES IDX 1 1 2 2 4 3 5 4 6 5 7 6 8 7 9 8 10 9 11 10 12 11 13 12 14 13
REMARK SMILES IDX 15 14 16 15 17 16 18 17 19 18 20 19 21 20 3 21
REMARK H PARENT 3 22
ROOT
ATOM      1  C   UNL     1      22.937   3.140   4.217  1.00  0.00     0.043 C 
ATOM      2  C   UNL     1      23.556   1.882   3.915  1.00  0.00     0.071 C 
ATOM      3  C   UNL     1      23.353   0.700   4.902  1.00  0.00     0.036 C 
ATOM      4  C   UNL     1      24.693  -0.060   4.705  1.00  0.00     0.008 C 
ATOM      5  C   UNL     1      25.632   1.137   4.527  1.00  0.00     0.009 C 
ATOM      6  C   UNL     1      26.989   0.705   4.015  1.00  0.00     0.024 C 
ATOM      7  C   UNL     1      27.748  -0.250   4.817  1.00  0.00     0.013 C 
ATOM      8  C   UNL     1      29.067  -0.533   4.061  1.00  0.00     0.036 C 
ATOM      9  C   UNL     1      29.745   0.767   3.880  1.00  0.00    -0.041 C 
ATOM     10  C   UNL     1      31.060   0.870   4.137  1.00  0.00     0.051 C 
ATOM     11  C   UNL     1      31.822   2.086   4.032  1.00  0.00     0.156 C 
ATOM     12  O   UNL     1      32.812   2.323   4.569  1.00  0.00    -0.295 OA
ATOM     13  C   UNL     1      31.120   3.033   3.026  1.00  0.00     0.085 C 
ATOM     14  C   UNL     1      29.705   3.275   3.377  1.00  0.00     0.044 C 
ATOM     15  C   UNL     1      28.970   2.004   3.637  1.00  0.00    -0.041 C 
ATOM     16  C   UNL     1      27.687   1.970   3.709  1.00  0.00    -0.041 C 
ATOM     17  C   UNL     1      26.895   3.223   3.609  1.00  0.00     0.000 C 
ATOM     18  C   UNL     1      25.600   3.142   3.468  1.00  0.00    -0.017 C 
ATOM     19  C   UNL     1      24.901   1.735   3.390  1.00  0.00     0.018 C 
ATOM     20  C   UNL     1      25.143   1.226   2.056  1.00  0.00     0.019 C 
ENDROOT
BRANCH   2  21
ATOM     21  O   UNL     1      22.755   1.341   2.775  1.00  0.00    -0.389 OA
ATOM     22  H   UNL     1      22.750   0.366   2.780  1.00  0.00     0.211 HD
ENDBRANCH   2  21
TORSDOF 1
