REMARK SMILES C=C(C)[C@@H]1CCC(C)=C[C@H]1c1c(O)cc(CCCCC)cc1O
REMARK SMILES IDX 16 1 15 2 11 3 12 4 22 5 14 6 21 7 10 8 4 9 5 10 6 11 9 12
REMARK SMILES IDX 7 13 8 14 2 15 1 16 3 17 13 18 23 20 17 22 18 23 19 24 20 25
REMARK H PARENT 13 19 23 21
ROOT
ATOM      1  C   UNL     1      30.101   2.169   7.746  1.00  0.00     0.036 C 
ENDROOT
BRANCH   1   2
ATOM      2  C   UNL     1      28.694   2.494   7.942  1.00  0.00    -0.041 A 
ATOM      3  C   UNL     1      25.898   2.768   8.121  1.00  0.00     0.043 A 
ATOM      4  C   UNL     1      26.487   2.666   6.888  1.00  0.00     0.123 A 
ATOM      5  C   UNL     1      26.753   2.711   9.168  1.00  0.00     0.123 A 
ATOM      6  C   UNL     1      27.818   2.546   6.800  1.00  0.00     0.050 A 
ATOM      7  C   UNL     1      28.154   2.566   9.194  1.00  0.00     0.050 A 
BRANCH   3   8
ATOM      8  C   UNL     1      24.437   2.978   8.285  1.00  0.00     0.056 C 
ATOM      9  C   UNL     1      23.592   1.995   8.915  1.00  0.00     0.026 C 
ATOM     10  C   UNL     1      22.944   2.427  10.184  1.00  0.00     0.013 C 
ATOM     11  C   UNL     1      22.092   3.606   9.762  1.00  0.00     0.031 C 
ATOM     12  C   UNL     1      24.190   4.455   8.732  1.00  0.00    -0.019 C 
ATOM     13  C   UNL     1      23.031   4.727   9.483  1.00  0.00    -0.077 C 
ATOM     14  C   UNL     1      22.776   6.134   9.920  1.00  0.00     0.039 C 
BRANCH   9  15
ATOM     15  C   UNL     1      22.579   1.458   8.005  1.00  0.00    -0.076 C 
ATOM     16  C   UNL     1      22.101   0.183   8.037  1.00  0.00     0.008 C 
ATOM     17  C   UNL     1      21.976   2.263   6.854  1.00  0.00     0.039 C 
ENDBRANCH   9  15
ENDBRANCH   3   8
BRANCH   4  18
ATOM     18  O   UNL     1      25.683   2.727   5.789  1.00  0.00    -0.507 OA
ATOM     19  H   UNL     1      25.519   1.827   5.301  1.00  0.00     0.293 HD
ENDBRANCH   4  18
BRANCH   5  20
ATOM     20  O   UNL     1      26.268   2.832  10.526  1.00  0.00    -0.507 OA
ATOM     21  H   UNL     1      26.195   1.792  10.815  1.00  0.00     0.293 HD
ENDBRANCH   5  20
ENDBRANCH   1   2
BRANCH   1  22
ATOM     22  C   UNL     1      30.755   1.518   8.909  1.00  0.00     0.005 C 
BRANCH  22  23
ATOM     23  C   UNL     1      31.550   2.433   9.834  1.00  0.00     0.000 C 
BRANCH  23  24
ATOM     24  C   UNL     1      32.624   3.074   8.920  1.00  0.00    -0.003 C 
ATOM     25  C   UNL     1      33.702   3.675   9.771  1.00  0.00     0.004 C 
ENDBRANCH  23  24
ENDBRANCH  22  23
ENDBRANCH   1  22
TORSDOF 8
