REMARK SMILES C=C(C)[C@@H]1CCC(C)=C[C@H]1c1c(O)cc(CCCCC)cc1O
REMARK SMILES IDX 16 1 15 2 11 3 12 4 22 5 14 6 21 7 10 8 4 9 5 10 6 11 9 12
REMARK SMILES IDX 7 13 8 14 2 15 1 16 3 17 13 18 23 20 17 22 18 23 19 24 20 25
REMARK H PARENT 13 19 23 21
ROOT
ATOM      1  C   UNL     1      30.031   2.890   9.922  1.00  0.00     0.036 C 
ENDROOT
BRANCH   1   2
ATOM      2  C   UNL     1      28.760   3.059   9.237  1.00  0.00    -0.041 A 
ATOM      3  C   UNL     1      26.097   3.029   8.289  1.00  0.00     0.043 A 
ATOM      4  C   UNL     1      26.859   4.184   8.307  1.00  0.00     0.123 A 
ATOM      5  C   UNL     1      26.665   1.842   8.744  1.00  0.00     0.123 A 
ATOM      6  C   UNL     1      28.190   4.212   8.784  1.00  0.00     0.050 A 
ATOM      7  C   UNL     1      27.961   1.899   9.194  1.00  0.00     0.050 A 
BRANCH   3   8
ATOM      8  C   UNL     1      24.588   3.134   8.024  1.00  0.00     0.056 C 
ATOM      9  C   UNL     1      23.804   1.963   8.296  1.00  0.00     0.026 C 
ATOM     10  C   UNL     1      22.836   2.319   9.484  1.00  0.00     0.013 C 
ATOM     11  C   UNL     1      21.993   3.498   9.022  1.00  0.00     0.031 C 
ATOM     12  C   UNL     1      24.223   4.374   8.847  1.00  0.00    -0.019 C 
ATOM     13  C   UNL     1      23.010   4.599   9.342  1.00  0.00    -0.077 C 
ATOM     14  C   UNL     1      22.649   5.788  10.161  1.00  0.00     0.039 C 
BRANCH   9  15
ATOM     15  C   UNL     1      22.957   1.367   7.255  1.00  0.00    -0.076 C 
ATOM     16  C   UNL     1      21.743   1.067   7.168  1.00  0.00     0.008 C 
ATOM     17  C   UNL     1      23.758   0.952   5.962  1.00  0.00     0.039 C 
ENDBRANCH   9  15
ENDBRANCH   3   8
BRANCH   4  18
ATOM     18  O   UNL     1      26.406   5.434   7.877  1.00  0.00    -0.507 OA
ATOM     19  H   UNL     1      26.197   5.567   6.922  1.00  0.00     0.293 HD
ENDBRANCH   4  18
BRANCH   5  20
ATOM     20  O   UNL     1      26.055   0.624   8.765  1.00  0.00    -0.507 OA
ATOM     21  H   UNL     1      26.156  -0.009   7.946  1.00  0.00     0.293 HD
ENDBRANCH   5  20
ENDBRANCH   1   2
BRANCH   1  22
ATOM     22  C   UNL     1      31.173   2.341   9.187  1.00  0.00     0.005 C 
BRANCH  22  23
ATOM     23  C   UNL     1      31.696   3.175   8.100  1.00  0.00     0.000 C 
BRANCH  23  24
ATOM     24  C   UNL     1      32.876   2.446   7.481  1.00  0.00    -0.003 C 
ATOM     25  C   UNL     1      33.970   2.231   8.490  1.00  0.00     0.004 C 
ENDBRANCH  23  24
ENDBRANCH  22  23
ENDBRANCH   1  22
TORSDOF 8
