REMARK SMILES C=C(C)[C@@H]1CCC(C)=C[C@H]1c1c(O)cc(CCCCC)cc1O
REMARK SMILES IDX 16 1 15 2 11 3 12 4 22 5 14 6 21 7 10 8 4 9 5 10 6 11 9 12
REMARK SMILES IDX 7 13 8 14 2 15 1 16 3 17 13 18 23 20 17 22 18 23 19 24 20 25
REMARK H PARENT 13 19 23 21
ROOT
ATOM      1  C   UNL     1      30.200   2.545   8.550  1.00  0.00     0.036 C 
ENDROOT
BRANCH   1   2
ATOM      2  C   UNL     1      28.744   2.562   8.267  1.00  0.00    -0.041 A 
ATOM      3  C   UNL     1      25.964   3.101   7.915  1.00  0.00     0.043 A 
ATOM      4  C   UNL     1      26.619   1.941   7.418  1.00  0.00     0.123 A 
ATOM      5  C   UNL     1      26.767   3.968   8.604  1.00  0.00     0.123 A 
ATOM      6  C   UNL     1      27.983   1.692   7.596  1.00  0.00     0.050 A 
ATOM      7  C   UNL     1      28.116   3.702   8.767  1.00  0.00     0.050 A 
BRANCH   3   8
ATOM      8  C   UNL     1      24.610   3.333   7.580  1.00  0.00     0.056 C 
ATOM      9  C   UNL     1      23.466   2.581   8.059  1.00  0.00     0.026 C 
ATOM     10  C   UNL     1      22.387   2.694   6.963  1.00  0.00     0.013 C 
ATOM     11  C   UNL     1      22.026   4.142   6.719  1.00  0.00     0.031 C 
ATOM     12  C   UNL     1      24.123   4.739   7.892  1.00  0.00    -0.019 C 
ATOM     13  C   UNL     1      22.872   5.095   7.459  1.00  0.00    -0.077 C 
ATOM     14  C   UNL     1      22.388   6.444   7.832  1.00  0.00     0.039 C 
BRANCH   9  15
ATOM     15  C   UNL     1      23.577   1.229   8.589  1.00  0.00    -0.076 C 
ATOM     16  C   UNL     1      23.017   0.213   7.944  1.00  0.00     0.008 C 
ATOM     17  C   UNL     1      24.291   1.047   9.904  1.00  0.00     0.039 C 
ENDBRANCH   9  15
ENDBRANCH   3   8
BRANCH   4  18
ATOM     18  O   UNL     1      25.943   0.982   6.711  1.00  0.00    -0.507 OA
ATOM     19  H   UNL     1      25.615   1.040   5.752  1.00  0.00     0.293 HD
ENDBRANCH   4  18
BRANCH   5  20
ATOM     20  O   UNL     1      26.351   5.157   9.202  1.00  0.00    -0.507 OA
ATOM     21  H   UNL     1      26.908   6.002   9.081  1.00  0.00     0.293 HD
ENDBRANCH   5  20
ENDBRANCH   1   2
BRANCH   1  22
ATOM     22  C   UNL     1      30.985   3.241   7.418  1.00  0.00     0.005 C 
BRANCH  22  23
ATOM     23  C   UNL     1      32.331   3.690   7.964  1.00  0.00     0.000 C 
BRANCH  23  24
ATOM     24  C   UNL     1      33.215   2.659   8.527  1.00  0.00    -0.003 C 
ATOM     25  C   UNL     1      33.666   1.670   7.509  1.00  0.00     0.004 C 
ENDBRANCH  23  24
ENDBRANCH  22  23
ENDBRANCH   1  22
TORSDOF 8
