REMARK SMILES C=C(C)[C@@H]1CCC(C)=C[C@H]1c1c(O)cc(CCCCC)cc1O
REMARK SMILES IDX 16 1 15 2 11 3 12 4 22 5 14 6 21 7 10 8 4 9 5 10 6 11 9 12
REMARK SMILES IDX 7 13 8 14 2 15 1 16 3 17 13 18 23 20 17 22 18 23 19 24 20 25
REMARK H PARENT 13 19 23 21
ROOT
ATOM      1  C   UNL     1      29.659   4.417   8.130  1.00  0.00     0.036 C 
ENDROOT
BRANCH   1   2
ATOM      2  C   UNL     1      28.368   3.791   8.277  1.00  0.00    -0.041 A 
ATOM      3  C   UNL     1      25.677   3.093   8.245  1.00  0.00     0.043 A 
ATOM      4  C   UNL     1      26.350   3.175   9.457  1.00  0.00     0.123 A 
ATOM      5  C   UNL     1      26.337   3.342   7.030  1.00  0.00     0.123 A 
ATOM      6  C   UNL     1      27.689   3.521   9.452  1.00  0.00     0.050 A 
ATOM      7  C   UNL     1      27.656   3.686   7.038  1.00  0.00     0.050 A 
BRANCH   3   8
ATOM      8  C   UNL     1      24.200   3.162   8.229  1.00  0.00     0.056 C 
ATOM      9  C   UNL     1      23.255   2.235   8.716  1.00  0.00     0.026 C 
ATOM     10  C   UNL     1      22.259   2.959   9.667  1.00  0.00     0.013 C 
ATOM     11  C   UNL     1      21.630   4.095   8.821  1.00  0.00     0.031 C 
ATOM     12  C   UNL     1      23.963   4.617   8.634  1.00  0.00    -0.019 C 
ATOM     13  C   UNL     1      22.778   5.119   8.914  1.00  0.00    -0.077 C 
ATOM     14  C   UNL     1      22.592   6.517   9.307  1.00  0.00     0.039 C 
BRANCH   9  15
ATOM     15  C   UNL     1      22.531   1.340   7.770  1.00  0.00    -0.076 C 
ATOM     16  C   UNL     1      22.572  -0.002   8.038  1.00  0.00     0.008 C 
ATOM     17  C   UNL     1      21.788   1.697   6.566  1.00  0.00     0.039 C 
ENDBRANCH   9  15
ENDBRANCH   3   8
BRANCH   4  18
ATOM     18  O   UNL     1      25.718   2.921  10.661  1.00  0.00    -0.507 OA
ATOM     19  H   UNL     1      25.633   1.938  10.891  1.00  0.00     0.293 HD
ENDBRANCH   4  18
BRANCH   5  20
ATOM     20  O   UNL     1      25.649   3.226   5.812  1.00  0.00    -0.507 OA
ATOM     21  H   UNL     1      25.594   2.284   5.412  1.00  0.00     0.293 HD
ENDBRANCH   5  20
ENDBRANCH   1   2
BRANCH   1  22
ATOM     22  C   UNL     1      30.919   3.793   7.918  1.00  0.00     0.005 C 
BRANCH  22  23
ATOM     23  C   UNL     1      31.512   2.909   8.973  1.00  0.00     0.000 C 
BRANCH  23  24
ATOM     24  C   UNL     1      32.917   2.520   8.372  1.00  0.00    -0.003 C 
ATOM     25  C   UNL     1      33.668   1.783   9.412  1.00  0.00     0.004 C 
ENDBRANCH  23  24
ENDBRANCH  22  23
ENDBRANCH   1  22
TORSDOF 8
