REMARK SMILES C=C(C)[C@@H]1CCC(C)=C[C@H]1c1c(O)cc(CCCCC)cc1O
REMARK SMILES IDX 16 1 15 2 11 3 12 4 22 5 14 6 21 7 10 8 4 9 5 10 6 11 9 12
REMARK SMILES IDX 7 13 8 14 2 15 1 16 3 17 13 18 23 20 17 22 18 23 19 24 20 25
REMARK H PARENT 13 19 23 21
ROOT
ATOM      1  C   UNL     1      30.262   1.526   8.257  1.00  0.00     0.036 C 
ENDROOT
BRANCH   1   2
ATOM      2  C   UNL     1      28.860   1.987   7.969  1.00  0.00    -0.041 A 
ATOM      3  C   UNL     1      26.099   2.677   7.755  1.00  0.00     0.043 A 
ATOM      4  C   UNL     1      26.528   1.655   8.570  1.00  0.00     0.123 A 
ATOM      5  C   UNL     1      27.086   3.349   7.047  1.00  0.00     0.123 A 
ATOM      6  C   UNL     1      27.874   1.299   8.686  1.00  0.00     0.050 A 
ATOM      7  C   UNL     1      28.452   2.985   7.172  1.00  0.00     0.050 A 
BRANCH   3   8
ATOM      8  C   UNL     1      24.659   3.028   7.681  1.00  0.00     0.056 C 
ATOM      9  C   UNL     1      23.745   2.276   8.552  1.00  0.00     0.026 C 
ATOM     10  C   UNL     1      22.525   3.170   8.935  1.00  0.00     0.013 C 
ATOM     11  C   UNL     1      22.920   4.421   9.647  1.00  0.00     0.031 C 
ATOM     12  C   UNL     1      24.538   4.517   7.797  1.00  0.00    -0.019 C 
ATOM     13  C   UNL     1      23.799   5.193   8.639  1.00  0.00    -0.077 C 
ATOM     14  C   UNL     1      23.715   6.680   8.620  1.00  0.00     0.039 C 
BRANCH   9  15
ATOM     15  C   UNL     1      23.040   1.229   7.825  1.00  0.00    -0.076 C 
ATOM     16  C   UNL     1      23.034   0.969   6.540  1.00  0.00     0.008 C 
ATOM     17  C   UNL     1      22.219   0.272   8.710  1.00  0.00     0.039 C 
ENDBRANCH   9  15
ENDBRANCH   3   8
BRANCH   4  18
ATOM     18  O   UNL     1      25.670   0.886   9.350  1.00  0.00    -0.507 OA
ATOM     19  H   UNL     1      25.911  -0.056   9.624  1.00  0.00     0.293 HD
ENDBRANCH   4  18
BRANCH   5  20
ATOM     20  O   UNL     1      26.837   4.397   6.171  1.00  0.00    -0.507 OA
ATOM     21  H   UNL     1      27.469   5.211   6.173  1.00  0.00     0.293 HD
ENDBRANCH   5  20
ENDBRANCH   1   2
BRANCH   1  22
ATOM     22  C   UNL     1      30.861   2.349   9.349  1.00  0.00     0.005 C 
BRANCH  22  23
ATOM     23  C   UNL     1      31.283   3.724   8.973  1.00  0.00     0.000 C 
BRANCH  23  24
ATOM     24  C   UNL     1      32.495   3.757   8.045  1.00  0.00    -0.003 C 
ATOM     25  C   UNL     1      33.689   3.173   8.787  1.00  0.00     0.004 C 
ENDBRANCH  23  24
ENDBRANCH  22  23
ENDBRANCH   1  22
TORSDOF 8
