REMARK SMILES CCCCCc1cc(O)c2c(c1)OC(C)(C)c1ccc(C)cc1-2
REMARK SMILES IDX 4 1 3 2 2 3 1 4 5 5 6 6 7 7 12 8 8 9 11 10 10 11 13 12 23 13
REMARK SMILES IDX 14 14 22 15 17 16 20 17 18 18 19 19 15 20 16 21 21 22 9 23
REMARK H PARENT 9 24
ROOT
ATOM      1  C   UNL     1      30.856   1.760   5.190  1.00  0.00     0.005 C 
ENDROOT
BRANCH   1   2
ATOM      2  C   UNL     1      32.332   1.723   5.483  1.00  0.00     0.000 C 
BRANCH   2   3
ATOM      3  C   UNL     1      32.862   2.989   6.054  1.00  0.00    -0.003 C 
ATOM      4  C   UNL     1      32.591   4.096   5.040  1.00  0.00     0.004 C 
ENDBRANCH   2   3
ENDBRANCH   1   2
BRANCH   1   5
ATOM      5  C   UNL     1      30.094   2.017   6.425  1.00  0.00     0.036 C 
BRANCH   5   6
ATOM      6  C   UNL     1      28.625   2.062   6.243  1.00  0.00    -0.041 A 
ATOM      7  C   UNL     1      27.928   0.887   6.375  1.00  0.00     0.050 A 
ATOM      8  C   UNL     1      28.010   3.258   5.953  1.00  0.00     0.051 A 
ATOM      9  C   UNL     1      26.537   0.893   6.210  1.00  0.00     0.127 A 
ATOM     10  C   UNL     1      26.625   3.222   5.796  1.00  0.00     0.132 A 
ATOM     11  C   UNL     1      25.891   2.069   5.920  1.00  0.00     0.066 A 
ATOM     12  O   UNL     1      26.005   4.406   5.507  1.00  0.00    -0.482 OA
ATOM     13  C   UNL     1      24.472   2.124   5.742  1.00  0.00    -0.003 A 
ATOM     14  C   UNL     1      24.643   4.606   5.310  1.00  0.00     0.129 C 
ATOM     15  C   UNL     1      23.679   1.004   5.853  1.00  0.00     0.012 A 
ATOM     16  C   UNL     1      23.872   3.326   5.453  1.00  0.00     0.003 A 
ATOM     17  C   UNL     1      22.286   1.070   5.677  1.00  0.00    -0.050 A 
ATOM     18  C   UNL     1      22.497   3.455   5.267  1.00  0.00     0.009 A 
ATOM     19  C   UNL     1      21.755   2.303   5.389  1.00  0.00     0.004 A 
ATOM     20  C   UNL     1      24.048   5.538   6.372  1.00  0.00     0.062 C 
ATOM     21  C   UNL     1      24.414   5.267   3.981  1.00  0.00     0.062 C 
ATOM     22  C   UNL     1      21.433  -0.142   5.797  1.00  0.00     0.044 C 
BRANCH   9  23
ATOM     23  O   UNL     1      25.922  -0.331   6.361  1.00  0.00    -0.507 OA
ATOM     24  H   UNL     1      26.152  -1.163   5.872  1.00  0.00     0.293 HD
ENDBRANCH   9  23
ENDBRANCH   5   6
ENDBRANCH   1   5
TORSDOF 5
