REMARK SMILES CCCCCc1cc(O)c2c(c1)OC(C)(C)c1ccc(C)cc1-2
REMARK SMILES IDX 4 1 3 2 2 3 1 4 5 5 6 6 7 7 12 8 8 9 11 10 10 11 13 12 23 13
REMARK SMILES IDX 14 14 22 15 17 16 20 17 18 18 19 19 15 20 16 21 21 22 9 23
REMARK H PARENT 9 24
ROOT
ATOM      1  C   UNL     1      30.315   2.257   6.351  1.00  0.00     0.005 C 
ENDROOT
BRANCH   1   2
ATOM      2  C   UNL     1      31.817   2.262   6.158  1.00  0.00     0.000 C 
BRANCH   2   3
ATOM      3  C   UNL     1      32.313   3.406   5.331  1.00  0.00    -0.003 C 
ATOM      4  C   UNL     1      33.830   3.248   5.245  1.00  0.00     0.004 C 
ENDBRANCH   2   3
ENDBRANCH   1   2
BRANCH   1   5
ATOM      5  C   UNL     1      29.569   2.169   5.065  1.00  0.00     0.036 C 
BRANCH   5   6
ATOM      6  C   UNL     1      28.118   2.158   5.153  1.00  0.00    -0.041 A 
ATOM      7  C   UNL     1      27.454   0.962   5.267  1.00  0.00     0.050 A 
ATOM      8  C   UNL     1      27.429   3.351   5.121  1.00  0.00     0.051 A 
ATOM      9  C   UNL     1      26.058   0.945   5.352  1.00  0.00     0.127 A 
ATOM     10  C   UNL     1      26.031   3.329   5.207  1.00  0.00     0.132 A 
ATOM     11  C   UNL     1      25.367   2.129   5.321  1.00  0.00     0.066 A 
ATOM     12  O   UNL     1      25.415   4.564   5.168  1.00  0.00    -0.482 OA
ATOM     13  C   UNL     1      23.926   2.164   5.405  1.00  0.00    -0.003 A 
ATOM     14  C   UNL     1      24.020   4.682   5.244  1.00  0.00     0.129 C 
ATOM     15  C   UNL     1      23.179   1.015   5.521  1.00  0.00     0.012 A 
ATOM     16  C   UNL     1      23.308   3.385   5.367  1.00  0.00     0.003 A 
ATOM     17  C   UNL     1      21.778   1.064   5.603  1.00  0.00    -0.050 A 
ATOM     18  C   UNL     1      21.921   3.462   5.446  1.00  0.00     0.009 A 
ATOM     19  C   UNL     1      21.196   2.299   5.561  1.00  0.00     0.004 A 
ATOM     20  C   UNL     1      23.650   5.478   6.496  1.00  0.00     0.062 C 
ATOM     21  C   UNL     1      23.502   5.491   4.071  1.00  0.00     0.062 C 
ATOM     22  C   UNL     1      20.966  -0.175   5.728  1.00  0.00     0.044 C 
BRANCH   9  23
ATOM     23  O   UNL     1      25.488  -0.304   5.463  1.00  0.00    -0.507 OA
ATOM     24  H   UNL     1      25.795  -0.900   6.237  1.00  0.00     0.293 HD
ENDBRANCH   9  23
ENDBRANCH   5   6
ENDBRANCH   1   5
TORSDOF 5
