REMARK SMILES CCCCCc1cc(O)c2c(c1)OC(C)(C)c1ccc(C)cc1-2
REMARK SMILES IDX 4 1 3 2 2 3 1 4 5 5 6 6 7 7 12 8 8 9 11 10 10 11 13 12 23 13
REMARK SMILES IDX 14 14 22 15 17 16 20 17 18 18 19 19 15 20 16 21 21 22 9 23
REMARK H PARENT 9 24
ROOT
ATOM      1  C   UNL     1      30.531   2.311   5.539  1.00  0.00     0.005 C 
ENDROOT
BRANCH   1   2
ATOM      2  C   UNL     1      31.997   2.339   5.965  1.00  0.00     0.000 C 
BRANCH   2   3
ATOM      3  C   UNL     1      32.824   2.278   4.701  1.00  0.00    -0.003 C 
ATOM      4  C   UNL     1      32.495   3.464   3.837  1.00  0.00     0.004 C 
ENDBRANCH   2   3
ENDBRANCH   1   2
BRANCH   1   5
ATOM      5  C   UNL     1      29.691   2.372   6.794  1.00  0.00     0.036 C 
BRANCH   5   6
ATOM      6  C   UNL     1      28.250   2.347   6.437  1.00  0.00    -0.041 A 
ATOM      7  C   UNL     1      27.616   1.136   6.337  1.00  0.00     0.050 A 
ATOM      8  C   UNL     1      27.538   3.502   6.204  1.00  0.00     0.051 A 
ATOM      9  C   UNL     1      26.257   1.073   6.002  1.00  0.00     0.127 A 
ATOM     10  C   UNL     1      26.189   3.472   5.869  1.00  0.00     0.132 A 
ATOM     11  C   UNL     1      25.575   2.225   5.777  1.00  0.00     0.066 A 
ATOM     12  O   UNL     1      25.568   4.662   5.658  1.00  0.00    -0.482 OA
ATOM     13  C   UNL     1      24.178   2.214   5.429  1.00  0.00    -0.003 A 
ATOM     14  C   UNL     1      24.213   4.738   5.317  1.00  0.00     0.129 C 
ATOM     15  C   UNL     1      23.466   1.044   5.308  1.00  0.00     0.012 A 
ATOM     16  C   UNL     1      23.553   3.414   5.216  1.00  0.00     0.003 A 
ATOM     17  C   UNL     1      22.102   1.038   4.969  1.00  0.00    -0.050 A 
ATOM     18  C   UNL     1      22.199   3.441   4.877  1.00  0.00     0.009 A 
ATOM     19  C   UNL     1      21.512   2.260   4.763  1.00  0.00     0.004 A 
ATOM     20  C   UNL     1      23.994   5.416   3.978  1.00  0.00     0.062 C 
ATOM     21  C   UNL     1      23.556   5.561   6.436  1.00  0.00     0.062 C 
ATOM     22  C   UNL     1      21.342  -0.233   4.841  1.00  0.00     0.044 C 
BRANCH   9  23
ATOM     23  O   UNL     1      25.735  -0.203   5.933  1.00  0.00    -0.507 OA
ATOM     24  H   UNL     1      25.965  -0.955   6.601  1.00  0.00     0.293 HD
ENDBRANCH   9  23
ENDBRANCH   5   6
ENDBRANCH   1   5
TORSDOF 5
