REMARK SMILES CCCCCc1cc(O)c2c(c1)OC(C)(C)c1ccc(C)cc1-2
REMARK SMILES IDX 4 1 3 2 2 3 1 4 5 5 6 6 7 7 12 8 8 9 11 10 10 11 13 12 23 13
REMARK SMILES IDX 14 14 22 15 17 16 20 17 18 18 19 19 15 20 16 21 21 22 9 23
REMARK H PARENT 9 24
ROOT
ATOM      1  C   UNL     1      30.797   1.837   5.261  1.00  0.00     0.005 C 
ENDROOT
BRANCH   1   2
ATOM      2  C   UNL     1      32.292   1.788   5.438  1.00  0.00     0.000 C 
BRANCH   2   3
ATOM      3  C   UNL     1      32.885   3.052   5.965  1.00  0.00    -0.003 C 
ATOM      4  C   UNL     1      32.627   4.225   5.061  1.00  0.00     0.004 C 
ENDBRANCH   2   3
ENDBRANCH   1   2
BRANCH   1   5
ATOM      5  C   UNL     1      30.028   2.106   6.512  1.00  0.00     0.036 C 
BRANCH   5   6
ATOM      6  C   UNL     1      28.567   2.146   6.303  1.00  0.00    -0.041 A 
ATOM      7  C   UNL     1      27.860   0.977   6.426  1.00  0.00     0.050 A 
ATOM      8  C   UNL     1      27.958   3.338   5.993  1.00  0.00     0.051 A 
ATOM      9  C   UNL     1      26.479   0.967   6.237  1.00  0.00     0.127 A 
ATOM     10  C   UNL     1      26.577   3.291   5.812  1.00  0.00     0.132 A 
ATOM     11  C   UNL     1      25.844   2.142   5.927  1.00  0.00     0.066 A 
ATOM     12  O   UNL     1      25.964   4.490   5.500  1.00  0.00    -0.482 OA
ATOM     13  C   UNL     1      24.423   2.205   5.719  1.00  0.00    -0.003 A 
ATOM     14  C   UNL     1      24.600   4.688   5.275  1.00  0.00     0.129 C 
ATOM     15  C   UNL     1      23.628   1.086   5.821  1.00  0.00     0.012 A 
ATOM     16  C   UNL     1      23.863   3.418   5.413  1.00  0.00     0.003 A 
ATOM     17  C   UNL     1      22.239   1.148   5.617  1.00  0.00    -0.050 A 
ATOM     18  C   UNL     1      22.489   3.475   5.212  1.00  0.00     0.009 A 
ATOM     19  C   UNL     1      21.694   2.357   5.314  1.00  0.00     0.004 A 
ATOM     20  C   UNL     1      24.394   5.327   3.922  1.00  0.00     0.062 C 
ATOM     21  C   UNL     1      24.093   5.604   6.368  1.00  0.00     0.062 C 
ATOM     22  C   UNL     1      21.381  -0.055   5.726  1.00  0.00     0.044 C 
BRANCH   9  23
ATOM     23  O   UNL     1      25.860  -0.253   6.382  1.00  0.00    -0.507 OA
ATOM     24  H   UNL     1      26.192  -1.138   6.081  1.00  0.00     0.293 HD
ENDBRANCH   9  23
ENDBRANCH   5   6
ENDBRANCH   1   5
TORSDOF 5
