REMARK SMILES CCCCCc1cc(O)c2c(c1)OC(C)(C)c1ccc(C)cc1-2
REMARK SMILES IDX 4 1 3 2 2 3 1 4 5 5 6 6 7 7 12 8 8 9 11 10 10 11 13 12 23 13
REMARK SMILES IDX 14 14 22 15 17 16 20 17 18 18 19 19 15 20 16 21 21 22 9 23
REMARK H PARENT 9 24
ROOT
ATOM      1  C   UNL     1      30.258   2.228   4.950  1.00  0.00     0.005 C 
ENDROOT
BRANCH   1   2
ATOM      2  C   UNL     1      31.757   2.214   5.027  1.00  0.00     0.000 C 
BRANCH   2   3
ATOM      3  C   UNL     1      32.295   3.524   5.592  1.00  0.00    -0.003 C 
ATOM      4  C   UNL     1      33.805   3.416   5.628  1.00  0.00     0.004 C 
ENDBRANCH   2   3
ENDBRANCH   1   2
BRANCH   1   5
ATOM      5  C   UNL     1      29.642   2.424   6.321  1.00  0.00     0.036 C 
BRANCH   5   6
ATOM      6  C   UNL     1      28.157   2.423   6.144  1.00  0.00    -0.041 A 
ATOM      7  C   UNL     1      27.525   1.205   6.237  1.00  0.00     0.050 A 
ATOM      8  C   UNL     1      27.464   3.576   5.903  1.00  0.00     0.051 A 
ATOM      9  C   UNL     1      26.134   1.139   6.080  1.00  0.00     0.127 A 
ATOM     10  C   UNL     1      26.095   3.476   5.753  1.00  0.00     0.132 A 
ATOM     11  C   UNL     1      25.415   2.284   5.837  1.00  0.00     0.066 A 
ATOM     12  O   UNL     1      25.402   4.640   5.510  1.00  0.00    -0.482 OA
ATOM     13  C   UNL     1      23.989   2.268   5.669  1.00  0.00    -0.003 A 
ATOM     14  C   UNL     1      24.027   4.769   5.329  1.00  0.00     0.129 C 
ATOM     15  C   UNL     1      23.272   1.100   5.745  1.00  0.00     0.012 A 
ATOM     16  C   UNL     1      23.331   3.436   5.430  1.00  0.00     0.003 A 
ATOM     17  C   UNL     1      21.878   1.094   5.580  1.00  0.00    -0.050 A 
ATOM     18  C   UNL     1      21.949   3.501   5.256  1.00  0.00     0.009 A 
ATOM     19  C   UNL     1      21.275   2.304   5.341  1.00  0.00     0.004 A 
ATOM     20  C   UNL     1      23.808   5.405   3.971  1.00  0.00     0.062 C 
ATOM     21  C   UNL     1      23.479   5.680   6.410  1.00  0.00     0.062 C 
ATOM     22  C   UNL     1      21.081  -0.144   5.656  1.00  0.00     0.044 C 
BRANCH   9  23
ATOM     23  O   UNL     1      25.592  -0.124   6.190  1.00  0.00    -0.507 OA
ATOM     24  H   UNL     1      25.935  -0.748   6.915  1.00  0.00     0.293 HD
ENDBRANCH   9  23
ENDBRANCH   5   6
ENDBRANCH   1   5
TORSDOF 5
