REMARK SMILES CCCCCc1cc(O)c2c(c1)OC(C)(C)[C@@H]1CCC(C)=C[C@@H]21
REMARK SMILES IDX 4 1 3 2 2 3 1 4 5 5 6 6 7 7 12 8 8 9 11 10 10 11 13 12 23 13
REMARK SMILES IDX 14 14 22 15 17 16 20 17 18 18 19 19 15 20 16 21 21 22 9 23
REMARK H PARENT 9 24
ROOT
ATOM      1  C   UNL     1      30.833   0.637   4.532  1.00  0.00     0.005 C 
ENDROOT
BRANCH   1   2
ATOM      2  C   UNL     1      31.534   1.613   5.416  1.00  0.00     0.000 C 
BRANCH   2   3
ATOM      3  C   UNL     1      31.564   2.984   4.774  1.00  0.00    -0.003 C 
ATOM      4  C   UNL     1      32.724   3.770   5.341  1.00  0.00     0.004 C 
ENDBRANCH   2   3
ENDBRANCH   1   2
BRANCH   1   5
ATOM      5  C   UNL     1      29.587   1.090   3.937  1.00  0.00     0.036 C 
BRANCH   5   6
ATOM      6  C   UNL     1      28.390   1.369   4.737  1.00  0.00    -0.041 A 
ATOM      7  C   UNL     1      27.736   0.244   5.325  1.00  0.00     0.050 A 
ATOM      8  C   UNL     1      27.748   2.518   4.611  1.00  0.00     0.050 A 
ATOM      9  C   UNL     1      26.385   0.509   5.635  1.00  0.00     0.123 A 
ATOM     10  C   UNL     1      26.446   2.697   4.928  1.00  0.00     0.127 A 
ATOM     11  C   UNL     1      25.739   1.649   5.416  1.00  0.00     0.043 A 
ATOM     12  O   UNL     1      25.867   3.920   4.820  1.00  0.00    -0.487 OA
ATOM     13  C   UNL     1      24.284   1.759   5.479  1.00  0.00     0.056 C 
ATOM     14  C   UNL     1      24.514   4.184   5.110  1.00  0.00     0.107 C 
ATOM     15  C   UNL     1      23.399   0.698   5.044  1.00  0.00    -0.019 C 
ATOM     16  C   UNL     1      23.832   3.014   4.548  1.00  0.00     0.044 C 
ATOM     17  C   UNL     1      22.092   0.859   5.113  1.00  0.00    -0.077 C 
ATOM     18  C   UNL     1      22.363   2.966   4.516  1.00  0.00     0.013 C 
ATOM     19  C   UNL     1      21.680   2.272   5.692  1.00  0.00     0.031 C 
ATOM     20  C   UNL     1      24.129   4.642   6.408  1.00  0.00     0.056 C 
ATOM     21  C   UNL     1      24.179   5.301   4.047  1.00  0.00     0.056 C 
ATOM     22  C   UNL     1      21.055  -0.069   4.652  1.00  0.00     0.039 C 
BRANCH   9  23
ATOM     23  O   UNL     1      25.728  -0.604   6.215  1.00  0.00    -0.507 OA
ATOM     24  H   UNL     1      24.928  -1.072   6.161  1.00  0.00     0.293 HD
ENDBRANCH   9  23
ENDBRANCH   5   6
ENDBRANCH   1   5
TORSDOF 5
