REMARK SMILES CCCCCc1cc(O)c2c(c1)OC(C)(C)[C@@H]1CCC(C)=C[C@@H]21
REMARK SMILES IDX 4 1 3 2 2 3 1 4 5 5 6 6 7 7 12 8 8 9 11 10 10 11 13 12 23 13
REMARK SMILES IDX 14 14 22 15 17 16 20 17 18 18 19 19 15 20 16 21 21 22 9 23
REMARK H PARENT 9 24
ROOT
ATOM      1  C   UNL     1      29.853   2.274   5.488  1.00  0.00     0.005 C 
ENDROOT
BRANCH   1   2
ATOM      2  C   UNL     1      31.057   1.918   4.600  1.00  0.00     0.000 C 
BRANCH   2   3
ATOM      3  C   UNL     1      32.047   1.263   5.522  1.00  0.00    -0.003 C 
ATOM      4  C   UNL     1      33.194   0.771   4.636  1.00  0.00     0.004 C 
ENDBRANCH   2   3
ENDBRANCH   1   2
BRANCH   1   5
ATOM      5  C   UNL     1      28.770   2.713   4.525  1.00  0.00     0.036 C 
BRANCH   5   6
ATOM      6  C   UNL     1      27.451   2.776   5.135  1.00  0.00    -0.041 A 
ATOM      7  C   UNL     1      26.997   1.602   5.662  1.00  0.00     0.050 A 
ATOM      8  C   UNL     1      26.604   3.847   4.851  1.00  0.00     0.050 A 
ATOM      9  C   UNL     1      25.673   1.452   5.952  1.00  0.00     0.123 A 
ATOM     10  C   UNL     1      25.234   3.694   5.131  1.00  0.00     0.127 A 
ATOM     11  C   UNL     1      24.807   2.485   5.667  1.00  0.00     0.043 A 
ATOM     12  O   UNL     1      24.355   4.741   4.912  1.00  0.00    -0.487 OA
ATOM     13  C   UNL     1      23.342   2.256   5.939  1.00  0.00     0.056 C 
ATOM     14  C   UNL     1      22.933   4.625   5.208  1.00  0.00     0.107 C 
ATOM     15  C   UNL     1      23.006   0.956   5.180  1.00  0.00    -0.019 C 
ATOM     16  C   UNL     1      22.548   3.240   5.129  1.00  0.00     0.044 C 
ATOM     17  C   UNL     1      21.730   0.634   4.939  1.00  0.00    -0.077 C 
ATOM     18  C   UNL     1      21.057   2.981   5.432  1.00  0.00     0.013 C 
ATOM     19  C   UNL     1      20.697   1.535   5.422  1.00  0.00     0.031 C 
ATOM     20  C   UNL     1      22.464   5.577   6.193  1.00  0.00     0.056 C 
ATOM     21  C   UNL     1      22.385   5.256   3.819  1.00  0.00     0.056 C 
ATOM     22  C   UNL     1      21.479  -0.615   4.130  1.00  0.00     0.039 C 
BRANCH   9  23
ATOM     23  O   UNL     1      25.260   0.226   6.547  1.00  0.00    -0.507 OA
ATOM     24  H   UNL     1      25.573  -0.608   6.104  1.00  0.00     0.293 HD
ENDBRANCH   9  23
ENDBRANCH   5   6
ENDBRANCH   1   5
TORSDOF 5
