REMARK SMILES CCCCCc1cc(O)c2c(c1)OC(C)(C)[C@@H]1CCC(C)=C[C@@H]21
REMARK SMILES IDX 4 1 3 2 2 3 1 4 5 5 6 6 7 7 12 8 8 9 11 10 10 11 13 12 23 13
REMARK SMILES IDX 14 14 22 15 17 16 20 17 18 18 19 19 15 20 16 21 21 22 9 23
REMARK H PARENT 9 24
ROOT
ATOM      1  C   UNL     1      30.032   1.119   2.550  1.00  0.00     0.005 C 
ENDROOT
BRANCH   1   2
ATOM      2  C   UNL     1      31.473   1.522   2.649  1.00  0.00     0.000 C 
BRANCH   2   3
ATOM      3  C   UNL     1      32.337   0.508   3.332  1.00  0.00    -0.003 C 
ATOM      4  C   UNL     1      33.766   1.107   3.487  1.00  0.00     0.004 C 
ENDBRANCH   2   3
ENDBRANCH   1   2
BRANCH   1   5
ATOM      5  C   UNL     1      29.521   0.970   3.985  1.00  0.00     0.036 C 
BRANCH   5   6
ATOM      6  C   UNL     1      28.072   0.772   4.069  1.00  0.00    -0.041 A 
ATOM      7  C   UNL     1      27.400  -0.364   4.437  1.00  0.00     0.050 A 
ATOM      8  C   UNL     1      27.274   1.856   3.773  1.00  0.00     0.050 A 
ATOM      9  C   UNL     1      26.008  -0.374   4.488  1.00  0.00     0.123 A 
ATOM     10  C   UNL     1      25.896   1.870   3.824  1.00  0.00     0.127 A 
ATOM     11  C   UNL     1      25.247   0.709   4.188  1.00  0.00     0.043 A 
ATOM     12  O   UNL     1      25.296   3.087   3.548  1.00  0.00    -0.487 OA
ATOM     13  C   UNL     1      23.766   0.831   4.375  1.00  0.00     0.056 C 
ATOM     14  C   UNL     1      23.869   3.308   3.707  1.00  0.00     0.107 C 
ATOM     15  C   UNL     1      23.204  -0.345   3.594  1.00  0.00    -0.019 C 
ATOM     16  C   UNL     1      23.267   2.001   3.562  1.00  0.00     0.044 C 
ATOM     17  C   UNL     1      21.970  -0.334   3.243  1.00  0.00    -0.077 C 
ATOM     18  C   UNL     1      21.747   2.068   3.699  1.00  0.00     0.013 C 
ATOM     19  C   UNL     1      21.045   0.771   3.581  1.00  0.00     0.031 C 
ATOM     20  C   UNL     1      23.685   4.142   4.904  1.00  0.00     0.056 C 
ATOM     21  C   UNL     1      23.522   4.128   2.451  1.00  0.00     0.056 C 
ATOM     22  C   UNL     1      21.408  -1.466   2.431  1.00  0.00     0.039 C 
BRANCH   9  23
ATOM     23  O   UNL     1      25.420  -1.596   4.875  1.00  0.00    -0.507 OA
ATOM     24  H   UNL     1      25.271  -1.657   5.886  1.00  0.00     0.293 HD
ENDBRANCH   9  23
ENDBRANCH   5   6
ENDBRANCH   1   5
TORSDOF 5
