REMARK SMILES CCCCCc1cc(O)c2c(c1)OC(C)(C)[C@@H]1CCC(C)=C[C@@H]21
REMARK SMILES IDX 4 1 3 2 2 3 1 4 5 5 6 6 7 7 12 8 8 9 11 10 10 11 13 12 23 13
REMARK SMILES IDX 14 14 22 15 17 16 20 17 18 18 19 19 15 20 16 21 21 22 9 23
REMARK H PARENT 9 24
ROOT
ATOM      1  C   UNL     1      31.259  -0.448   2.990  1.00  0.00     0.005 C 
ENDROOT
BRANCH   1   2
ATOM      2  C   UNL     1      31.960   0.528   3.874  1.00  0.00     0.000 C 
BRANCH   2   3
ATOM      3  C   UNL     1      31.990   1.899   3.232  1.00  0.00    -0.003 C 
ATOM      4  C   UNL     1      33.150   2.685   3.799  1.00  0.00     0.004 C 
ENDBRANCH   2   3
ENDBRANCH   1   2
BRANCH   1   5
ATOM      5  C   UNL     1      30.013   0.005   2.395  1.00  0.00     0.036 C 
BRANCH   5   6
ATOM      6  C   UNL     1      28.816   0.284   3.195  1.00  0.00    -0.041 A 
ATOM      7  C   UNL     1      28.162  -0.841   3.783  1.00  0.00     0.050 A 
ATOM      8  C   UNL     1      28.174   1.433   3.069  1.00  0.00     0.050 A 
ATOM      9  C   UNL     1      26.811  -0.576   4.093  1.00  0.00     0.123 A 
ATOM     10  C   UNL     1      26.872   1.612   3.386  1.00  0.00     0.127 A 
ATOM     11  C   UNL     1      26.165   0.564   3.874  1.00  0.00     0.043 A 
ATOM     12  O   UNL     1      26.293   2.835   3.278  1.00  0.00    -0.487 OA
ATOM     13  C   UNL     1      24.710   0.674   3.937  1.00  0.00     0.056 C 
ATOM     14  C   UNL     1      24.940   3.099   3.568  1.00  0.00     0.107 C 
ATOM     15  C   UNL     1      23.825  -0.387   3.502  1.00  0.00    -0.019 C 
ATOM     16  C   UNL     1      24.258   1.929   3.006  1.00  0.00     0.044 C 
ATOM     17  C   UNL     1      22.518  -0.226   3.571  1.00  0.00    -0.077 C 
ATOM     18  C   UNL     1      22.789   1.881   2.974  1.00  0.00     0.013 C 
ATOM     19  C   UNL     1      22.106   1.187   4.150  1.00  0.00     0.031 C 
ATOM     20  C   UNL     1      24.555   3.557   4.866  1.00  0.00     0.056 C 
ATOM     21  C   UNL     1      24.605   4.216   2.505  1.00  0.00     0.056 C 
ATOM     22  C   UNL     1      21.481  -1.154   3.110  1.00  0.00     0.039 C 
BRANCH   9  23
ATOM     23  O   UNL     1      26.154  -1.689   4.673  1.00  0.00    -0.507 OA
ATOM     24  H   UNL     1      25.354  -2.157   4.619  1.00  0.00     0.293 HD
ENDBRANCH   9  23
ENDBRANCH   5   6
ENDBRANCH   1   5
TORSDOF 5
