REMARK SMILES O=C(N[C@]12C[C@H]3C[C@H](C[C@H](C3)C1)C2)c1nn(CCCCCF)c2ccccc12
REMARK SMILES IDX 18 1 17 2 16 3 14 4 15 5 28 6 27 7 23 8 26 9 24 10 25 11
REMARK SMILES IDX 2 12 3 13 1 14 4 16 11 17 6 18 10 19 7 20 5 21 9 22 12 23
REMARK SMILES IDX 8 24 13 25 19 26 20 27 21 28 22 29
REMARK H PARENT 3 15
ROOT
ATOM      1  C   UNL     1      31.991   3.854   6.737  1.00  0.00     0.024 C 
ENDROOT
BRANCH   1   2
ATOM      2  C   UNL     1      31.680   2.907   7.908  1.00  0.00     0.145 C 
BRANCH   2   3
ATOM      3  N   UNL     1      31.077   1.683   7.464  1.00  0.00    -0.264 N 
ATOM      4  C   UNL     1      29.439   0.439   6.829  1.00  0.00     0.158 A 
ATOM      5  N   UNL     1      29.748   1.585   7.408  1.00  0.00    -0.166 NA
ATOM      6  C   UNL     1      30.629  -0.262   6.480  1.00  0.00     0.033 A 
ATOM      7  C   UNL     1      30.923  -1.481   5.868  1.00  0.00     0.013 A 
ATOM      8  C   UNL     1      31.674   0.595   6.905  1.00  0.00     0.069 A 
ATOM      9  C   UNL     1      32.246  -1.807   5.697  1.00  0.00     0.001 A 
ATOM     10  C   UNL     1      33.013   0.255   6.727  1.00  0.00     0.028 A 
ATOM     11  C   UNL     1      33.274  -0.951   6.121  1.00  0.00     0.002 A 
BRANCH   4  12
ATOM     12  C   UNL     1      28.039   0.053   6.555  1.00  0.00     0.272 C 
ATOM     13  N   UNL     1      27.159   0.983   6.980  1.00  0.00    -0.345 N 
ATOM     14  O   UNL     1      27.747  -0.984   5.983  1.00  0.00    -0.267 OA
ATOM     15  H   UNL     1      27.553   1.798   7.424  1.00  0.00     0.164 HD
BRANCH  13  16
ATOM     16  C   UNL     1      25.715   0.944   6.794  1.00  0.00     0.041 C 
ATOM     17  C   UNL     1      23.280  -0.316   5.763  1.00  0.00     0.007 C 
ATOM     18  C   UNL     1      23.612  -0.323   7.254  1.00  0.00    -0.008 C 
ATOM     19  C   UNL     1      23.860   0.942   5.120  1.00  0.00    -0.008 C 
ATOM     20  C   UNL     1      23.010   0.915   7.919  1.00  0.00     0.007 C 
ATOM     21  C   UNL     1      25.128  -0.317   7.438  1.00  0.00     0.032 C 
ATOM     22  C   UNL     1      23.261   2.182   5.783  1.00  0.00     0.007 C 
ATOM     23  C   UNL     1      25.377   0.953   5.299  1.00  0.00     0.032 C 
ATOM     24  C   UNL     1      23.595   2.171   7.274  1.00  0.00    -0.008 C 
ATOM     25  C   UNL     1      25.112   2.183   7.457  1.00  0.00     0.032 C 
ENDBRANCH  13  16
ENDBRANCH   4  12
ENDBRANCH   2   3
ENDBRANCH   1   2
BRANCH   1  26
ATOM     26  C   UNL     1      30.835   3.992   5.744  1.00  0.00     0.005 C 
BRANCH  26  27
ATOM     27  C   UNL     1      29.552   4.528   6.373  1.00  0.00     0.034 C 
BRANCH  27  28
ATOM     28  C   UNL     1      28.411   4.503   5.367  1.00  0.00     0.214 C 
ATOM     29  F   UNL     1      27.235   4.889   5.970  1.00  0.00    -0.251 F 
ENDBRANCH  27  28
ENDBRANCH  26  27
ENDBRANCH   1  26
TORSDOF 7
