REMARK SMILES CCCCCc1cc(O)c2c(c1)OC(C)(C)c1ccc(C)cc1-2
REMARK SMILES IDX 4 1 3 2 2 3 1 4 5 5 6 6 12 7 7 8 11 9 8 10 10 11 13 12 23 13
REMARK SMILES IDX 14 14 22 15 17 16 20 17 18 18 19 19 15 20 16 21 21 22 9 23
REMARK H PARENT 9 24
ROOT
ATOM      1  C   UNL     1      30.826   1.371   5.009  1.00  0.00     0.005 C 
ENDROOT
BRANCH   1   2
ATOM      2  C   UNL     1      30.944   2.856   5.337  1.00  0.00     0.000 C 
BRANCH   2   3
ATOM      3  C   UNL     1      31.793   3.102   6.582  1.00  0.00    -0.003 C 
ATOM      4  C   UNL     1      31.906   4.587   6.906  1.00  0.00     0.004 C 
ENDBRANCH   2   3
ENDBRANCH   1   2
BRANCH   1   5
ATOM      5  C   UNL     1      29.980   1.117   3.754  1.00  0.00     0.036 C 
BRANCH   5   6
ATOM      6  C   UNL     1      28.557   1.548   3.961  1.00  0.00    -0.041 A 
ATOM      7  C   UNL     1      27.689   0.765   4.703  1.00  0.00     0.051 A 
ATOM      8  C   UNL     1      28.083   2.736   3.427  1.00  0.00     0.050 A 
ATOM      9  C   UNL     1      26.381   1.176   4.920  1.00  0.00     0.132 A 
ATOM     10  C   UNL     1      26.787   3.174   3.664  1.00  0.00     0.127 A 
ATOM     11  C   UNL     1      25.909   2.412   4.448  1.00  0.00     0.066 A 
ATOM     12  O   UNL     1      25.592   0.339   5.637  1.00  0.00    -0.482 OA
ATOM     13  C   UNL     1      24.566   2.818   4.862  1.00  0.00    -0.003 A 
ATOM     14  C   UNL     1      24.182   0.401   5.388  1.00  0.00     0.129 C 
ATOM     15  C   UNL     1      24.134   4.141   4.839  1.00  0.00     0.012 A 
ATOM     16  C   UNL     1      23.707   1.836   5.372  1.00  0.00     0.003 A 
ATOM     17  C   UNL     1      22.866   4.499   5.268  1.00  0.00    -0.050 A 
ATOM     18  C   UNL     1      22.439   2.193   5.800  1.00  0.00     0.009 A 
ATOM     19  C   UNL     1      22.017   3.509   5.744  1.00  0.00     0.004 A 
ATOM     20  C   UNL     1      23.563  -0.435   6.509  1.00  0.00     0.062 C 
ATOM     21  C   UNL     1      23.887  -0.237   4.020  1.00  0.00     0.062 C 
ATOM     22  C   UNL     1      22.430   5.933   5.240  1.00  0.00     0.044 C 
BRANCH  10  23
ATOM     23  O   UNL     1      26.367   4.350   3.112  1.00  0.00    -0.507 OA
ATOM     24  H   UNL     1      27.077   4.710   2.565  1.00  0.00     0.293 HD
ENDBRANCH  10  23
ENDBRANCH   5   6
ENDBRANCH   1   5
TORSDOF 5
