REMARK SMILES CCCCCc1cc(O)c2c(c1)OC(C)(C)[C@@H]1CCC(C)=C[C@@H]21
REMARK SMILES IDX 4 1 3 2 2 3 1 4 5 5 6 6 7 7 12 8 8 9 11 10 10 11 13 12 23 13
REMARK SMILES IDX 14 14 22 15 17 16 20 17 18 18 19 19 15 20 16 21 21 22 9 23
REMARK H PARENT 9 24
ROOT
ATOM      1  C   UNL     1      29.885   2.351   4.145  1.00  0.00     0.005 C 
ENDROOT
BRANCH   1   2
ATOM      2  C   UNL     1      31.326   2.754   4.244  1.00  0.00     0.000 C 
BRANCH   2   3
ATOM      3  C   UNL     1      32.190   1.740   4.927  1.00  0.00    -0.003 C 
ATOM      4  C   UNL     1      33.619   2.339   5.082  1.00  0.00     0.004 C 
ENDBRANCH   2   3
ENDBRANCH   1   2
BRANCH   1   5
ATOM      5  C   UNL     1      29.374   2.202   5.580  1.00  0.00     0.036 C 
BRANCH   5   6
ATOM      6  C   UNL     1      27.925   2.004   5.664  1.00  0.00    -0.041 A 
ATOM      7  C   UNL     1      27.253   0.868   6.032  1.00  0.00     0.050 A 
ATOM      8  C   UNL     1      27.127   3.088   5.368  1.00  0.00     0.050 A 
ATOM      9  C   UNL     1      25.861   0.858   6.083  1.00  0.00     0.123 A 
ATOM     10  C   UNL     1      25.749   3.102   5.419  1.00  0.00     0.127 A 
ATOM     11  C   UNL     1      25.100   1.941   5.783  1.00  0.00     0.043 A 
ATOM     12  O   UNL     1      25.149   4.319   5.143  1.00  0.00    -0.487 OA
ATOM     13  C   UNL     1      23.619   2.063   5.970  1.00  0.00     0.056 C 
ATOM     14  C   UNL     1      23.722   4.540   5.302  1.00  0.00     0.107 C 
ATOM     15  C   UNL     1      23.057   0.887   5.189  1.00  0.00    -0.019 C 
ATOM     16  C   UNL     1      23.120   3.233   5.157  1.00  0.00     0.044 C 
ATOM     17  C   UNL     1      21.823   0.898   4.838  1.00  0.00    -0.077 C 
ATOM     18  C   UNL     1      21.600   3.300   5.294  1.00  0.00     0.013 C 
ATOM     19  C   UNL     1      20.898   2.003   5.176  1.00  0.00     0.031 C 
ATOM     20  C   UNL     1      23.538   5.374   6.499  1.00  0.00     0.056 C 
ATOM     21  C   UNL     1      23.375   5.360   4.046  1.00  0.00     0.056 C 
ATOM     22  C   UNL     1      21.261  -0.234   4.026  1.00  0.00     0.039 C 
BRANCH   9  23
ATOM     23  O   UNL     1      25.273  -0.364   6.470  1.00  0.00    -0.507 OA
ATOM     24  H   UNL     1      25.124  -0.425   7.481  1.00  0.00     0.293 HD
ENDBRANCH   9  23
ENDBRANCH   5   6
ENDBRANCH   1   5
TORSDOF 5
