REMARK SMILES CCCCCc1cc(O)c2c(c1)OC(C)(C)[C@@H]1CCC(C)=C[C@@H]21
REMARK SMILES IDX 4 1 3 2 2 3 1 4 5 5 6 6 7 7 12 8 8 9 11 10 10 11 13 12 23 13
REMARK SMILES IDX 14 14 22 15 17 16 20 17 18 18 19 19 15 20 16 21 21 22 9 23
REMARK H PARENT 9 24
ROOT
ATOM      1  C   UNL     1      30.132   2.421   5.541  1.00  0.00     0.005 C 
ENDROOT
BRANCH   1   2
ATOM      2  C   UNL     1      31.336   2.065   4.653  1.00  0.00     0.000 C 
BRANCH   2   3
ATOM      3  C   UNL     1      32.326   1.410   5.575  1.00  0.00    -0.003 C 
ATOM      4  C   UNL     1      33.473   0.918   4.689  1.00  0.00     0.004 C 
ENDBRANCH   2   3
ENDBRANCH   1   2
BRANCH   1   5
ATOM      5  C   UNL     1      29.049   2.860   4.578  1.00  0.00     0.036 C 
BRANCH   5   6
ATOM      6  C   UNL     1      27.730   2.923   5.188  1.00  0.00    -0.041 A 
ATOM      7  C   UNL     1      27.276   1.749   5.715  1.00  0.00     0.050 A 
ATOM      8  C   UNL     1      26.883   3.994   4.904  1.00  0.00     0.050 A 
ATOM      9  C   UNL     1      25.952   1.599   6.005  1.00  0.00     0.123 A 
ATOM     10  C   UNL     1      25.513   3.841   5.184  1.00  0.00     0.127 A 
ATOM     11  C   UNL     1      25.086   2.632   5.720  1.00  0.00     0.043 A 
ATOM     12  O   UNL     1      24.634   4.888   4.965  1.00  0.00    -0.487 OA
ATOM     13  C   UNL     1      23.621   2.403   5.992  1.00  0.00     0.056 C 
ATOM     14  C   UNL     1      23.212   4.772   5.261  1.00  0.00     0.107 C 
ATOM     15  C   UNL     1      23.285   1.103   5.233  1.00  0.00    -0.019 C 
ATOM     16  C   UNL     1      22.827   3.387   5.182  1.00  0.00     0.044 C 
ATOM     17  C   UNL     1      22.009   0.781   4.992  1.00  0.00    -0.077 C 
ATOM     18  C   UNL     1      21.336   3.128   5.485  1.00  0.00     0.013 C 
ATOM     19  C   UNL     1      20.976   1.682   5.475  1.00  0.00     0.031 C 
ATOM     20  C   UNL     1      22.743   5.724   6.246  1.00  0.00     0.056 C 
ATOM     21  C   UNL     1      22.664   5.403   3.872  1.00  0.00     0.056 C 
ATOM     22  C   UNL     1      21.758  -0.468   4.183  1.00  0.00     0.039 C 
BRANCH   9  23
ATOM     23  O   UNL     1      25.539   0.373   6.600  1.00  0.00    -0.507 OA
ATOM     24  H   UNL     1      25.852  -0.461   6.157  1.00  0.00     0.293 HD
ENDBRANCH   9  23
ENDBRANCH   5   6
ENDBRANCH   1   5
TORSDOF 5
