REMARK SMILES CCCCCc1cc(O)c2c(c1)OC(C)(C)[C@@H]1CCC(C)=C[C@@H]21
REMARK SMILES IDX 4 1 3 2 2 3 1 4 5 5 6 6 7 7 12 8 8 9 11 10 10 11 13 12 23 13
REMARK SMILES IDX 14 14 22 15 17 16 20 17 18 18 19 19 15 20 16 21 21 22 9 23
REMARK H PARENT 9 24
ROOT
ATOM      1  C   UNL     1      31.112   0.784   4.585  1.00  0.00     0.005 C 
ENDROOT
BRANCH   1   2
ATOM      2  C   UNL     1      31.813   1.760   5.469  1.00  0.00     0.000 C 
BRANCH   2   3
ATOM      3  C   UNL     1      31.843   3.131   4.827  1.00  0.00    -0.003 C 
ATOM      4  C   UNL     1      33.003   3.917   5.394  1.00  0.00     0.004 C 
ENDBRANCH   2   3
ENDBRANCH   1   2
BRANCH   1   5
ATOM      5  C   UNL     1      29.866   1.237   3.990  1.00  0.00     0.036 C 
BRANCH   5   6
ATOM      6  C   UNL     1      28.669   1.516   4.790  1.00  0.00    -0.041 A 
ATOM      7  C   UNL     1      28.015   0.391   5.378  1.00  0.00     0.050 A 
ATOM      8  C   UNL     1      28.027   2.665   4.664  1.00  0.00     0.050 A 
ATOM      9  C   UNL     1      26.664   0.656   5.688  1.00  0.00     0.123 A 
ATOM     10  C   UNL     1      26.725   2.844   4.981  1.00  0.00     0.127 A 
ATOM     11  C   UNL     1      26.018   1.796   5.469  1.00  0.00     0.043 A 
ATOM     12  O   UNL     1      26.146   4.067   4.873  1.00  0.00    -0.487 OA
ATOM     13  C   UNL     1      24.563   1.906   5.532  1.00  0.00     0.056 C 
ATOM     14  C   UNL     1      24.793   4.331   5.163  1.00  0.00     0.107 C 
ATOM     15  C   UNL     1      23.678   0.845   5.097  1.00  0.00    -0.019 C 
ATOM     16  C   UNL     1      24.111   3.161   4.601  1.00  0.00     0.044 C 
ATOM     17  C   UNL     1      22.371   1.006   5.166  1.00  0.00    -0.077 C 
ATOM     18  C   UNL     1      22.642   3.113   4.569  1.00  0.00     0.013 C 
ATOM     19  C   UNL     1      21.959   2.419   5.745  1.00  0.00     0.031 C 
ATOM     20  C   UNL     1      24.408   4.789   6.461  1.00  0.00     0.056 C 
ATOM     21  C   UNL     1      24.458   5.448   4.100  1.00  0.00     0.056 C 
ATOM     22  C   UNL     1      21.334   0.078   4.705  1.00  0.00     0.039 C 
BRANCH   9  23
ATOM     23  O   UNL     1      26.007  -0.457   6.268  1.00  0.00    -0.507 OA
ATOM     24  H   UNL     1      25.207  -0.925   6.214  1.00  0.00     0.293 HD
ENDBRANCH   9  23
ENDBRANCH   5   6
ENDBRANCH   1   5
TORSDOF 5
