REMARK SMILES C[C@]12CCC(=O)C[C@@H]1CC[C@@H]1[C@@H]2CC[C@]2(C)[C@@H](O)CC[C@@]12C
REMARK SMILES IDX 1 1 2 2 3 3 4 4 5 5 6 6 7 7 8 8 9 9 10 10 11 11 12 12 13 13
REMARK SMILES IDX 14 14 15 15 21 16 20 17 19 18 17 19 22 20 16 21 18 22
REMARK H PARENT 18 23
ROOT
ATOM      1  C   UNL     1      26.739   0.391   4.741  1.00  0.00     0.012 C 
ATOM      2  C   UNL     1      26.706   0.785   6.222  1.00  0.00    -0.026 C 
ATOM      3  C   UNL     1      25.862  -0.244   6.996  1.00  0.00     0.015 C 
ATOM      4  C   UNL     1      24.387  -0.244   6.586  1.00  0.00     0.076 C 
ATOM      5  C   UNL     1      23.771   1.129   6.678  1.00  0.00     0.133 C 
ATOM      6  O   UNL     1      22.724   1.345   7.235  1.00  0.00    -0.300 OA
ATOM      7  C   UNL     1      24.582   2.207   6.004  1.00  0.00     0.079 C 
ATOM      8  C   UNL     1      26.048   2.163   6.451  1.00  0.00     0.002 C 
ATOM      9  C   UNL     1      26.850   3.291   5.806  1.00  0.00     0.005 C 
ATOM     10  C   UNL     1      28.243   3.338   6.421  1.00  0.00     0.005 C 
ATOM     11  C   UNL     1      28.963   2.003   6.221  1.00  0.00    -0.001 C 
ATOM     12  C   UNL     1      28.137   0.851   6.838  1.00  0.00    -0.001 C 
ATOM     13  C   UNL     1      28.861  -0.507   6.780  1.00  0.00     0.005 C 
ATOM     14  C   UNL     1      30.334  -0.469   7.204  1.00  0.00     0.010 C 
ATOM     15  C   UNL     1      31.067   0.641   6.459  1.00  0.00    -0.001 C 
ATOM     16  C   UNL     1      30.395   1.999   6.786  1.00  0.00    -0.022 C 
ATOM     17  C   UNL     1      31.385   2.990   6.152  1.00  0.00     0.010 C 
ATOM     18  C   UNL     1      32.768   2.377   6.441  1.00  0.00     0.033 C 
ATOM     19  C   UNL     1      32.535   0.907   6.879  1.00  0.00     0.121 C 
ATOM     20  C   UNL     1      30.379   2.309   8.293  1.00  0.00     0.012 C 
ATOM     21  C   UNL     1      31.087   0.297   4.960  1.00  0.00     0.015 C 
ENDROOT
BRANCH  19  22
ATOM     22  O   UNL     1      33.489   0.011   6.377  1.00  0.00    -0.393 OA
ATOM     23  H   UNL     1      33.499   0.075   5.415  1.00  0.00     0.210 HD
ENDBRANCH  19  22
TORSDOF 1
