REMARK SMILES C[C@]12CCC(=O)C[C@@H]1CC[C@@H]1[C@@H]2CC[C@]2(C)[C@@H](O)CC[C@@]12C
REMARK SMILES IDX 1 1 2 2 3 3 4 4 5 5 6 6 7 7 8 8 9 9 10 10 11 11 12 12 13 13
REMARK SMILES IDX 14 14 15 15 16 16 17 17 19 18 20 19 21 20 22 21 18 22
REMARK H PARENT 18 23
ROOT
ATOM      1  C   UNL     1      29.809   3.892   9.799  1.00  0.00     0.012 C 
ATOM      2  C   UNL     1      29.699   3.013   8.632  1.00  0.00    -0.026 C 
ATOM      3  C   UNL     1      30.414   1.645   8.890  1.00  0.00     0.015 C 
ATOM      4  C   UNL     1      31.922   1.650   8.877  1.00  0.00     0.076 C 
ATOM      5  C   UNL     1      32.328   3.050   8.800  1.00  0.00     0.133 C 
ATOM      6  O   UNL     1      33.101   3.511   9.658  1.00  0.00    -0.300 OA
ATOM      7  C   UNL     1      31.816   3.866   7.709  1.00  0.00     0.079 C 
ATOM      8  C   UNL     1      30.381   3.382   7.345  1.00  0.00     0.002 C 
ATOM      9  C   UNL     1      29.701   4.555   6.658  1.00  0.00     0.005 C 
ATOM     10  C   UNL     1      28.291   4.151   6.343  1.00  0.00     0.005 C 
ATOM     11  C   UNL     1      27.561   3.782   7.594  1.00  0.00    -0.001 C 
ATOM     12  C   UNL     1      28.277   2.595   8.305  1.00  0.00    -0.001 C 
ATOM     13  C   UNL     1      27.576   2.429   9.674  1.00  0.00     0.005 C 
ATOM     14  C   UNL     1      26.142   1.936   9.454  1.00  0.00     0.010 C 
ATOM     15  C   UNL     1      25.475   2.974   8.617  1.00  0.00    -0.001 C 
ATOM     16  C   UNL     1      25.287   4.228   9.578  1.00  0.00     0.015 C 
ATOM     17  C   UNL     1      24.087   2.675   8.144  1.00  0.00     0.121 C 
ATOM     18  C   UNL     1      23.874   3.875   7.141  1.00  0.00     0.033 C 
ATOM     19  C   UNL     1      25.241   4.491   6.976  1.00  0.00     0.010 C 
ATOM     20  C   UNL     1      26.169   3.310   7.388  1.00  0.00    -0.022 C 
ATOM     21  C   UNL     1      26.000   2.237   6.385  1.00  0.00     0.012 C 
ENDROOT
BRANCH  17  22
ATOM     22  O   UNL     1      23.191   2.808   9.165  1.00  0.00    -0.393 OA
ATOM     23  H   UNL     1      22.388   2.224   9.085  1.00  0.00     0.210 HD
ENDBRANCH  17  22
TORSDOF 1
