REMARK SMILES C[C@]12CCC(=O)C[C@@H]1CC[C@@H]1[C@@H]2CC[C@]2(C)[C@@H](O)CC[C@@]12C
REMARK SMILES IDX 1 1 2 2 3 3 4 4 5 5 6 6 7 7 8 8 9 9 10 10 11 11 12 12 13 13
REMARK SMILES IDX 14 14 15 15 16 16 17 17 19 18 20 19 21 20 22 21 18 22
REMARK H PARENT 18 23
ROOT
ATOM      1  C   UNL     1      29.820   3.993   9.769  1.00  0.00     0.012 C 
ATOM      2  C   UNL     1      29.649   3.079   8.642  1.00  0.00    -0.026 C 
ATOM      3  C   UNL     1      30.364   1.703   8.961  1.00  0.00     0.015 C 
ATOM      4  C   UNL     1      31.874   1.710   8.947  1.00  0.00     0.076 C 
ATOM      5  C   UNL     1      32.293   3.106   8.891  1.00  0.00     0.133 C 
ATOM      6  O   UNL     1      33.049   3.534   9.759  1.00  0.00    -0.300 OA
ATOM      7  C   UNL     1      31.758   3.908   7.770  1.00  0.00     0.079 C 
ATOM      8  C   UNL     1      30.354   3.446   7.350  1.00  0.00     0.002 C 
ATOM      9  C   UNL     1      29.665   4.608   6.683  1.00  0.00     0.005 C 
ATOM     10  C   UNL     1      28.226   4.199   6.369  1.00  0.00     0.005 C 
ATOM     11  C   UNL     1      27.522   3.804   7.611  1.00  0.00    -0.001 C 
ATOM     12  C   UNL     1      28.245   2.643   8.315  1.00  0.00    -0.001 C 
ATOM     13  C   UNL     1      27.558   2.417   9.684  1.00  0.00     0.005 C 
ATOM     14  C   UNL     1      26.119   1.905   9.450  1.00  0.00     0.010 C 
ATOM     15  C   UNL     1      25.458   2.984   8.650  1.00  0.00    -0.001 C 
ATOM     16  C   UNL     1      25.211   4.127   9.622  1.00  0.00     0.015 C 
ATOM     17  C   UNL     1      24.065   2.656   8.112  1.00  0.00     0.121 C 
ATOM     18  C   UNL     1      23.837   3.890   7.187  1.00  0.00     0.033 C 
ATOM     19  C   UNL     1      25.196   4.521   7.040  1.00  0.00     0.010 C 
ATOM     20  C   UNL     1      26.134   3.342   7.427  1.00  0.00    -0.022 C 
ATOM     21  C   UNL     1      25.988   2.281   6.360  1.00  0.00     0.012 C 
ENDROOT
BRANCH  17  22
ATOM     22  O   UNL     1      23.164   2.733   9.122  1.00  0.00    -0.393 OA
ATOM     23  H   UNL     1      22.440   3.401   8.956  1.00  0.00     0.210 HD
ENDBRANCH  17  22
TORSDOF 1
