REMARK SMILES C[C@]12CCC(=O)C[C@@H]1CC[C@@H]1[C@@H]2CC[C@]2(C)[C@@H](O)CC[C@@]12C
REMARK SMILES IDX 1 1 2 2 3 3 4 4 5 5 6 6 7 7 8 8 9 9 10 10 11 11 12 12 13 13
REMARK SMILES IDX 14 14 15 15 16 16 17 17 19 18 20 19 21 20 22 21 18 22
REMARK H PARENT 18 23
ROOT
ATOM      1  C   UNL     1      29.457   4.183   9.877  1.00  0.00     0.012 C 
ATOM      2  C   UNL     1      29.358   3.012   8.949  1.00  0.00    -0.026 C 
ATOM      3  C   UNL     1      30.264   1.877   9.491  1.00  0.00     0.015 C 
ATOM      4  C   UNL     1      31.770   2.155   9.430  1.00  0.00     0.076 C 
ATOM      5  C   UNL     1      31.953   3.544   8.983  1.00  0.00     0.133 C 
ATOM      6  O   UNL     1      32.672   4.305   9.670  1.00  0.00    -0.300 OA
ATOM      7  C   UNL     1      31.319   4.073   7.726  1.00  0.00     0.079 C 
ATOM      8  C   UNL     1      30.035   3.299   7.598  1.00  0.00     0.002 C 
ATOM      9  C   UNL     1      29.148   3.423   6.379  1.00  0.00     0.005 C 
ATOM     10  C   UNL     1      28.095   4.448   6.801  1.00  0.00     0.005 C 
ATOM     11  C   UNL     1      27.327   3.847   7.919  1.00  0.00    -0.001 C 
ATOM     12  C   UNL     1      27.993   2.659   8.592  1.00  0.00    -0.001 C 
ATOM     13  C   UNL     1      27.201   2.211   9.807  1.00  0.00     0.005 C 
ATOM     14  C   UNL     1      25.767   1.810   9.413  1.00  0.00     0.010 C 
ATOM     15  C   UNL     1      25.129   2.995   8.768  1.00  0.00    -0.001 C 
ATOM     16  C   UNL     1      24.990   4.028   9.882  1.00  0.00     0.015 C 
ATOM     17  C   UNL     1      23.784   2.906   8.170  1.00  0.00     0.121 C 
ATOM     18  C   UNL     1      23.695   4.285   7.435  1.00  0.00     0.033 C 
ATOM     19  C   UNL     1      25.109   4.815   7.505  1.00  0.00     0.010 C 
ATOM     20  C   UNL     1      25.924   3.453   7.598  1.00  0.00    -0.022 C 
ATOM     21  C   UNL     1      25.733   2.808   6.347  1.00  0.00     0.012 C 
ENDROOT
BRANCH  17  22
ATOM     22  O   UNL     1      22.868   2.965   9.237  1.00  0.00    -0.393 OA
ATOM     23  H   UNL     1      22.816   2.012   9.618  1.00  0.00     0.210 HD
ENDBRANCH  17  22
TORSDOF 1
