REMARK SMILES C[C@]12CCC(=O)C[C@@H]1CC[C@@H]1[C@@H]2CC[C@]2(C)[C@@H](O)CC[C@@]12C
REMARK SMILES IDX 1 1 2 2 3 3 4 4 5 5 6 6 7 7 8 8 9 9 10 10 11 11 12 12 13 13
REMARK SMILES IDX 14 14 15 15 16 16 17 17 19 18 20 19 21 20 22 21 18 22
REMARK H PARENT 18 23
ROOT
ATOM      1  C   UNL     1      29.843   3.636   9.887  1.00  0.00     0.012 C 
ATOM      2  C   UNL     1      29.391   3.119   8.595  1.00  0.00    -0.026 C 
ATOM      3  C   UNL     1      30.097   1.667   8.586  1.00  0.00     0.015 C 
ATOM      4  C   UNL     1      31.504   1.606   8.559  1.00  0.00     0.076 C 
ATOM      5  C   UNL     1      32.279   2.800   8.219  1.00  0.00     0.133 C 
ATOM      6  O   UNL     1      33.432   2.807   8.247  1.00  0.00    -0.300 OA
ATOM      7  C   UNL     1      31.533   3.992   7.767  1.00  0.00     0.079 C 
ATOM      8  C   UNL     1      30.147   3.716   7.405  1.00  0.00     0.002 C 
ATOM      9  C   UNL     1      29.415   4.873   6.846  1.00  0.00     0.005 C 
ATOM     10  C   UNL     1      27.992   4.377   6.425  1.00  0.00     0.005 C 
ATOM     11  C   UNL     1      27.312   3.883   7.645  1.00  0.00    -0.001 C 
ATOM     12  C   UNL     1      28.029   2.688   8.297  1.00  0.00    -0.001 C 
ATOM     13  C   UNL     1      27.275   2.768   9.770  1.00  0.00     0.005 C 
ATOM     14  C   UNL     1      25.843   2.233   9.533  1.00  0.00     0.010 C 
ATOM     15  C   UNL     1      25.241   3.134   8.587  1.00  0.00    -0.001 C 
ATOM     16  C   UNL     1      24.734   4.463   9.226  1.00  0.00     0.015 C 
ATOM     17  C   UNL     1      23.872   2.593   8.036  1.00  0.00     0.121 C 
ATOM     18  C   UNL     1      23.631   3.571   6.856  1.00  0.00     0.033 C 
ATOM     19  C   UNL     1      24.967   4.306   6.701  1.00  0.00     0.010 C 
ATOM     20  C   UNL     1      25.922   3.382   7.367  1.00  0.00    -0.022 C 
ATOM     21  C   UNL     1      26.040   2.103   6.514  1.00  0.00     0.012 C 
ENDROOT
BRANCH  17  22
ATOM     22  O   UNL     1      22.884   2.857   8.944  1.00  0.00    -0.393 OA
ATOM     23  H   UNL     1      22.056   3.204   8.484  1.00  0.00     0.210 HD
ENDBRANCH  17  22
TORSDOF 1
