REMARK SMILES C[C@]12CCC(=O)C[C@@H]1CC[C@@H]1[C@@H]2CC[C@]2(C)[C@@H](O)CC[C@@]12C
REMARK SMILES IDX 1 1 2 2 3 3 4 4 5 5 6 6 7 7 8 8 9 9 10 10 11 11 12 12 13 13
REMARK SMILES IDX 14 14 15 15 16 16 17 17 19 18 20 19 21 20 22 21 18 22
REMARK H PARENT 18 23
ROOT
ATOM      1  C   UNL     1      29.942   3.942   9.798  1.00  0.00     0.012 C 
ATOM      2  C   UNL     1      29.769   3.092   8.636  1.00  0.00    -0.026 C 
ATOM      3  C   UNL     1      30.448   1.680   8.923  1.00  0.00     0.015 C 
ATOM      4  C   UNL     1      31.940   1.645   8.910  1.00  0.00     0.076 C 
ATOM      5  C   UNL     1      32.377   3.040   8.874  1.00  0.00     0.133 C 
ATOM      6  O   UNL     1      33.125   3.430   9.778  1.00  0.00    -0.300 OA
ATOM      7  C   UNL     1      31.906   3.887   7.774  1.00  0.00     0.079 C 
ATOM      8  C   UNL     1      30.493   3.475   7.343  1.00  0.00     0.002 C 
ATOM      9  C   UNL     1      29.775   4.607   6.675  1.00  0.00     0.005 C 
ATOM     10  C   UNL     1      28.364   4.173   6.353  1.00  0.00     0.005 C 
ATOM     11  C   UNL     1      27.639   3.811   7.596  1.00  0.00    -0.001 C 
ATOM     12  C   UNL     1      28.357   2.647   8.316  1.00  0.00    -0.001 C 
ATOM     13  C   UNL     1      27.670   2.420   9.676  1.00  0.00     0.005 C 
ATOM     14  C   UNL     1      26.231   1.911   9.428  1.00  0.00     0.010 C 
ATOM     15  C   UNL     1      25.558   2.976   8.615  1.00  0.00    -0.001 C 
ATOM     16  C   UNL     1      25.316   4.185   9.556  1.00  0.00     0.015 C 
ATOM     17  C   UNL     1      24.173   2.642   8.097  1.00  0.00     0.121 C 
ATOM     18  C   UNL     1      23.938   3.841   7.140  1.00  0.00     0.033 C 
ATOM     19  C   UNL     1      25.313   4.517   7.015  1.00  0.00     0.010 C 
ATOM     20  C   UNL     1      26.243   3.338   7.408  1.00  0.00    -0.022 C 
ATOM     21  C   UNL     1      26.162   2.272   6.361  1.00  0.00     0.012 C 
ENDROOT
BRANCH  17  22
ATOM     22  O   UNL     1      23.235   2.617   9.107  1.00  0.00    -0.393 OA
ATOM     23  H   UNL     1      22.363   3.001   8.886  1.00  0.00     0.210 HD
ENDBRANCH  17  22
TORSDOF 1
