REMARK SMILES O=C(NC12CC3CC(CC(C3)C1)C2)c1nn(CCCCCF)c2ccccc12
REMARK SMILES IDX 18 1 17 2 16 3 14 4 15 5 28 6 27 7 23 8 26 9 24 10 25 11
REMARK SMILES IDX 2 12 1 13 3 14 4 16 13 17 12 18 5 19 8 20 10 21 6 22 7 23
REMARK SMILES IDX 9 24 11 25 19 26 20 27 21 28 22 29
REMARK H PARENT 3 15
ROOT
ATOM      1  C   UNL     1      31.542   1.785   6.493  1.00  0.00     0.024 C 
ENDROOT
BRANCH   1   2
ATOM      2  C   UNL     1      30.899   2.292   5.250  1.00  0.00     0.145 C 
BRANCH   2   3
ATOM      3  N   UNL     1      29.501   2.650   5.402  1.00  0.00    -0.264 N 
ATOM      4  C   UNL     1      27.301   2.523   5.453  1.00  0.00     0.158 A 
ATOM      5  N   UNL     1      28.463   1.850   5.226  1.00  0.00    -0.166 NA
ATOM      6  C   UNL     1      27.698   3.786   5.781  1.00  0.00     0.033 A 
ATOM      7  C   UNL     1      27.011   4.918   6.127  1.00  0.00     0.013 A 
ATOM      8  C   UNL     1      29.076   3.875   5.751  1.00  0.00     0.069 A 
ATOM      9  C   UNL     1      27.696   6.073   6.422  1.00  0.00     0.001 A 
ATOM     10  C   UNL     1      29.767   5.031   6.046  1.00  0.00     0.028 A 
ATOM     11  C   UNL     1      29.070   6.177   6.395  1.00  0.00     0.002 A 
BRANCH   4  12
ATOM     12  C   UNL     1      26.022   1.867   5.342  1.00  0.00     0.272 C 
ATOM     13  O   UNL     1      26.072   0.593   5.266  1.00  0.00    -0.267 OA
ATOM     14  N   UNL     1      24.746   2.428   5.302  1.00  0.00    -0.345 N 
ATOM     15  H   UNL     1      24.640   3.446   5.332  1.00  0.00     0.164 HD
BRANCH  14  16
ATOM     16  C   UNL     1      23.530   1.639   5.196  1.00  0.00     0.041 C 
ATOM     17  C   UNL     1      22.366   2.622   5.147  1.00  0.00     0.032 C 
ATOM     18  C   UNL     1      23.440   0.767   6.430  1.00  0.00     0.032 C 
ATOM     19  C   UNL     1      23.440   0.782   3.990  1.00  0.00     0.032 C 
ATOM     20  C   UNL     1      21.046   1.900   5.225  1.00  0.00    -0.008 C 
ATOM     21  C   UNL     1      22.072   0.072   6.500  1.00  0.00    -0.008 C 
ATOM     22  C   UNL     1      22.094   0.065   4.045  1.00  0.00    -0.008 C 
ATOM     23  C   UNL     1      20.933   1.009   4.023  1.00  0.00     0.007 C 
ATOM     24  C   UNL     1      21.029   1.151   6.540  1.00  0.00     0.007 C 
ATOM     25  C   UNL     1      21.946  -0.798   5.268  1.00  0.00     0.007 C 
ENDBRANCH  14  16
ENDBRANCH   4  12
ENDBRANCH   2   3
ENDBRANCH   1   2
BRANCH   1  26
ATOM     26  C   UNL     1      32.980   1.417   6.332  1.00  0.00     0.005 C 
BRANCH  26  27
ATOM     27  C   UNL     1      33.250   0.348   5.328  1.00  0.00     0.034 C 
BRANCH  27  28
ATOM     28  C   UNL     1      32.582  -0.962   5.617  1.00  0.00     0.214 C 
ATOM     29  F   UNL     1      33.011  -1.458   6.849  1.00  0.00    -0.251 F 
ENDBRANCH  27  28
ENDBRANCH  26  27
ENDBRANCH   1  26
TORSDOF 7
