REMARK SMILES O=C(NC12CC3CC(CC(C3)C1)C2)c1nn(CCCCCF)c2ccccc12
REMARK SMILES IDX 18 1 17 2 16 3 14 4 15 5 28 6 27 7 23 8 26 9 24 10 25 11
REMARK SMILES IDX 2 12 1 13 3 14 4 16 13 17 12 18 5 19 8 20 10 21 6 22 7 23
REMARK SMILES IDX 9 24 11 25 19 26 20 27 21 28 22 29
REMARK H PARENT 3 15
ROOT
ATOM      1  C   UNL     1      30.767   1.073   5.178  1.00  0.00     0.024 C 
ENDROOT
BRANCH   1   2
ATOM      2  C   UNL     1      30.154   1.358   6.525  1.00  0.00     0.145 C 
BRANCH   2   3
ATOM      3  N   UNL     1      28.859   1.959   6.269  1.00  0.00    -0.264 N 
ATOM      4  C   UNL     1      26.691   2.160   5.901  1.00  0.00     0.158 A 
ATOM      5  N   UNL     1      27.732   1.298   6.136  1.00  0.00    -0.166 NA
ATOM      6  C   UNL     1      27.278   3.391   5.903  1.00  0.00     0.033 A 
ATOM      7  C   UNL     1      26.789   4.639   5.719  1.00  0.00     0.013 A 
ATOM      8  C   UNL     1      28.654   3.279   6.135  1.00  0.00     0.069 A 
ATOM      9  C   UNL     1      27.610   5.738   5.763  1.00  0.00     0.001 A 
ATOM     10  C   UNL     1      29.480   4.380   6.180  1.00  0.00     0.028 A 
ATOM     11  C   UNL     1      28.969   5.648   5.992  1.00  0.00     0.002 A 
BRANCH   4  12
ATOM     12  C   UNL     1      25.356   1.673   5.708  1.00  0.00     0.272 C 
ATOM     13  O   UNL     1      25.250   0.397   5.557  1.00  0.00    -0.267 OA
ATOM     14  N   UNL     1      24.148   2.375   5.660  1.00  0.00    -0.345 N 
ATOM     15  H   UNL     1      24.146   3.391   5.789  1.00  0.00     0.164 HD
BRANCH  14  16
ATOM     16  C   UNL     1      22.855   1.735   5.453  1.00  0.00     0.041 C 
ATOM     17  C   UNL     1      22.594   0.783   6.566  1.00  0.00     0.032 C 
ATOM     18  C   UNL     1      21.772   2.785   5.465  1.00  0.00     0.032 C 
ATOM     19  C   UNL     1      22.809   1.085   4.090  1.00  0.00     0.032 C 
ATOM     20  C   UNL     1      21.244   0.116   6.371  1.00  0.00    -0.008 C 
ATOM     21  C   UNL     1      20.445   2.138   5.225  1.00  0.00    -0.008 C 
ATOM     22  C   UNL     1      21.507   0.349   3.935  1.00  0.00    -0.008 C 
ATOM     23  C   UNL     1      21.332  -0.627   5.054  1.00  0.00     0.007 C 
ATOM     24  C   UNL     1      20.189   1.175   6.389  1.00  0.00     0.007 C 
ATOM     25  C   UNL     1      20.377   1.356   3.955  1.00  0.00     0.007 C 
ENDBRANCH  14  16
ENDBRANCH   4  12
ENDBRANCH   2   3
ENDBRANCH   1   2
BRANCH   1  26
ATOM     26  C   UNL     1      32.118   0.446   5.243  1.00  0.00     0.005 C 
BRANCH  26  27
ATOM     27  C   UNL     1      33.138   1.294   5.960  1.00  0.00     0.034 C 
BRANCH  27  28
ATOM     28  C   UNL     1      34.451   0.544   5.952  1.00  0.00     0.214 C 
ATOM     29  F   UNL     1      34.931   0.271   4.704  1.00  0.00    -0.251 F 
ENDBRANCH  27  28
ENDBRANCH  26  27
ENDBRANCH   1  26
TORSDOF 7
