REMARK SMILES O=C(NC12CC3CC(CC(C3)C1)C2)c1nn(CCCCCF)c2ccccc12
REMARK SMILES IDX 18 1 17 2 16 3 14 4 15 5 28 6 27 7 23 8 26 9 24 10 25 11
REMARK SMILES IDX 2 12 1 13 3 14 4 16 13 17 12 18 5 19 8 20 10 21 6 22 7 23
REMARK SMILES IDX 9 24 11 25 19 26 20 27 21 28 22 29
REMARK H PARENT 3 15
ROOT
ATOM      1  C   UNL     1      32.369   2.366   5.845  1.00  0.00     0.024 C 
ENDROOT
BRANCH   1   2
ATOM      2  C   UNL     1      31.646   2.649   4.576  1.00  0.00     0.145 C 
BRANCH   2   3
ATOM      3  N   UNL     1      30.248   2.972   4.753  1.00  0.00    -0.264 N 
ATOM      4  C   UNL     1      28.062   2.754   4.951  1.00  0.00     0.158 A 
ATOM      5  N   UNL     1      29.247   2.107   4.760  1.00  0.00    -0.166 NA
ATOM      6  C   UNL     1      28.404   4.063   5.061  1.00  0.00     0.033 A 
ATOM      7  C   UNL     1      27.680   5.195   5.267  1.00  0.00     0.013 A 
ATOM      8  C   UNL     1      29.790   4.221   4.937  1.00  0.00     0.069 A 
ATOM      9  C   UNL     1      28.291   6.422   5.347  1.00  0.00     0.001 A 
ATOM     10  C   UNL     1      30.402   5.448   5.016  1.00  0.00     0.028 A 
ATOM     11  C   UNL     1      29.655   6.594   5.226  1.00  0.00     0.002 A 
BRANCH   4  12
ATOM     12  C   UNL     1      26.820   2.025   5.010  1.00  0.00     0.272 C 
ATOM     13  O   UNL     1      26.946   0.746   5.088  1.00  0.00    -0.267 OA
ATOM     14  N   UNL     1      25.514   2.499   4.992  1.00  0.00    -0.345 N 
ATOM     15  H   UNL     1      25.329   3.505   4.911  1.00  0.00     0.164 HD
BRANCH  14  16
ATOM     16  C   UNL     1      24.365   1.616   5.064  1.00  0.00     0.041 C 
ATOM     17  C   UNL     1      24.291   0.774   6.282  1.00  0.00     0.032 C 
ATOM     18  C   UNL     1      24.334   0.792   3.799  1.00  0.00     0.032 C 
ATOM     19  C   UNL     1      23.083   2.466   5.017  1.00  0.00     0.032 C 
ATOM     20  C   UNL     1      23.037  -0.052   6.231  1.00  0.00    -0.008 C 
ATOM     21  C   UNL     1      23.173  -0.178   3.787  1.00  0.00    -0.008 C 
ATOM     22  C   UNL     1      21.884   1.589   4.872  1.00  0.00    -0.008 C 
ATOM     23  C   UNL     1      21.771   0.724   6.125  1.00  0.00     0.007 C 
ATOM     24  C   UNL     1      23.149  -0.982   5.044  1.00  0.00     0.007 C 
ATOM     25  C   UNL     1      21.913   0.658   3.702  1.00  0.00     0.007 C 
ENDBRANCH  14  16
ENDBRANCH   4  12
ENDBRANCH   2   3
ENDBRANCH   1   2
BRANCH   1  26
ATOM     26  C   UNL     1      31.824   1.211   6.635  1.00  0.00     0.005 C 
BRANCH  26  27
ATOM     27  C   UNL     1      31.858  -0.089   5.878  1.00  0.00     0.034 C 
BRANCH  27  28
ATOM     28  C   UNL     1      31.285  -1.172   6.776  1.00  0.00     0.214 C 
ATOM     29  F   UNL     1      29.980  -0.874   7.129  1.00  0.00    -0.251 F 
ENDBRANCH  27  28
ENDBRANCH  26  27
ENDBRANCH   1  26
TORSDOF 7
