REMARK SMILES O=C(NC12CC3CC(CC(C3)C1)C2)c1nn(CCCCCF)c2ccccc12
REMARK SMILES IDX 18 1 17 2 16 3 14 4 15 5 28 6 27 7 23 8 26 9 24 10 25 11
REMARK SMILES IDX 2 12 1 13 3 14 4 16 13 17 12 18 5 19 8 20 10 21 6 22 7 23
REMARK SMILES IDX 9 24 11 25 19 26 20 27 21 28 22 29
REMARK H PARENT 3 15
ROOT
ATOM      1  C   UNL     1      31.381   1.474   6.514  1.00  0.00     0.024 C 
ENDROOT
BRANCH   1   2
ATOM      2  C   UNL     1      30.943   1.921   5.183  1.00  0.00     0.145 C 
BRANCH   2   3
ATOM      3  N   UNL     1      29.601   2.576   5.292  1.00  0.00    -0.264 N 
ATOM      4  C   UNL     1      27.424   2.800   5.327  1.00  0.00     0.158 A 
ATOM      5  N   UNL     1      28.433   1.946   5.184  1.00  0.00    -0.166 NA
ATOM      6  C   UNL     1      28.026   4.042   5.539  1.00  0.00     0.033 A 
ATOM      7  C   UNL     1      27.532   5.313   5.754  1.00  0.00     0.013 A 
ATOM      8  C   UNL     1      29.405   3.890   5.515  1.00  0.00     0.069 A 
ATOM      9  C   UNL     1      28.365   6.408   5.942  1.00  0.00     0.001 A 
ATOM     10  C   UNL     1      30.270   4.947   5.696  1.00  0.00     0.028 A 
ATOM     11  C   UNL     1      29.742   6.202   5.909  1.00  0.00     0.002 A 
BRANCH   4  12
ATOM     12  C   UNL     1      25.982   2.566   5.285  1.00  0.00     0.272 C 
ATOM     13  O   UNL     1      25.174   3.538   5.449  1.00  0.00    -0.267 OA
ATOM     14  N   UNL     1      25.475   1.275   5.065  1.00  0.00    -0.345 N 
ATOM     15  H   UNL     1      26.192   0.501   4.934  1.00  0.00     0.164 HD
BRANCH  14  16
ATOM     16  C   UNL     1      24.074   0.933   5.004  1.00  0.00     0.041 C 
ATOM     17  C   UNL     1      23.899  -0.556   4.751  1.00  0.00     0.032 C 
ATOM     18  C   UNL     1      23.502   1.218   6.378  1.00  0.00     0.032 C 
ATOM     19  C   UNL     1      23.299   1.734   3.987  1.00  0.00     0.032 C 
ATOM     20  C   UNL     1      22.456  -0.929   4.832  1.00  0.00    -0.008 C 
ATOM     21  C   UNL     1      22.045   0.831   6.494  1.00  0.00    -0.008 C 
ATOM     22  C   UNL     1      21.847   1.298   4.111  1.00  0.00    -0.008 C 
ATOM     23  C   UNL     1      21.731  -0.149   3.757  1.00  0.00     0.007 C 
ATOM     24  C   UNL     1      21.880  -0.635   6.195  1.00  0.00     0.007 C 
ATOM     25  C   UNL     1      21.288   1.633   5.473  1.00  0.00     0.007 C 
ENDBRANCH  14  16
ENDBRANCH   4  12
ENDBRANCH   2   3
ENDBRANCH   1   2
BRANCH   1  26
ATOM     26  C   UNL     1      32.722   0.848   6.542  1.00  0.00     0.005 C 
BRANCH  26  27
ATOM     27  C   UNL     1      33.049  -0.400   5.867  1.00  0.00     0.034 C 
BRANCH  27  28
ATOM     28  C   UNL     1      32.926  -0.565   4.410  1.00  0.00     0.214 C 
ATOM     29  F   UNL     1      33.419  -1.877   4.126  1.00  0.00    -0.251 F 
ENDBRANCH  27  28
ENDBRANCH  26  27
ENDBRANCH   1  26
TORSDOF 7
