REMARK SMILES CCCCCc1cc(O)c2c(c1)OC(C)(C)[C@@H]1CCC(C)=C[C@@H]21
REMARK SMILES IDX 4 1 3 2 2 3 1 4 5 5 6 6 7 7 12 8 8 9 11 10 10 11 13 12 23 13
REMARK SMILES IDX 14 14 22 15 17 16 20 17 18 18 19 19 15 20 16 21 21 22 9 23
REMARK H PARENT 9 24
ROOT
ATOM      1  C   UNL     1      30.279   1.189   3.946  1.00  0.00     0.005 C 
ENDROOT
BRANCH   1   2
ATOM      2  C   UNL     1      31.483   0.833   3.058  1.00  0.00     0.000 C 
BRANCH   2   3
ATOM      3  C   UNL     1      32.473   0.178   3.980  1.00  0.00    -0.003 C 
ATOM      4  C   UNL     1      33.620  -0.314   3.094  1.00  0.00     0.004 C 
ENDBRANCH   2   3
ENDBRANCH   1   2
BRANCH   1   5
ATOM      5  C   UNL     1      29.196   1.628   2.983  1.00  0.00     0.036 C 
BRANCH   5   6
ATOM      6  C   UNL     1      27.877   1.691   3.593  1.00  0.00    -0.041 A 
ATOM      7  C   UNL     1      27.423   0.517   4.120  1.00  0.00     0.050 A 
ATOM      8  C   UNL     1      27.030   2.762   3.309  1.00  0.00     0.050 A 
ATOM      9  C   UNL     1      26.099   0.367   4.410  1.00  0.00     0.123 A 
ATOM     10  C   UNL     1      25.660   2.609   3.589  1.00  0.00     0.127 A 
ATOM     11  C   UNL     1      25.233   1.400   4.125  1.00  0.00     0.043 A 
ATOM     12  O   UNL     1      24.781   3.656   3.370  1.00  0.00    -0.487 OA
ATOM     13  C   UNL     1      23.768   1.171   4.397  1.00  0.00     0.056 C 
ATOM     14  C   UNL     1      23.359   3.540   3.666  1.00  0.00     0.107 C 
ATOM     15  C   UNL     1      23.432  -0.129   3.638  1.00  0.00    -0.019 C 
ATOM     16  C   UNL     1      22.974   2.155   3.587  1.00  0.00     0.044 C 
ATOM     17  C   UNL     1      22.156  -0.451   3.397  1.00  0.00    -0.077 C 
ATOM     18  C   UNL     1      21.483   1.896   3.890  1.00  0.00     0.013 C 
ATOM     19  C   UNL     1      21.123   0.450   3.880  1.00  0.00     0.031 C 
ATOM     20  C   UNL     1      22.890   4.492   4.651  1.00  0.00     0.056 C 
ATOM     21  C   UNL     1      22.811   4.171   2.277  1.00  0.00     0.056 C 
ATOM     22  C   UNL     1      21.905  -1.700   2.588  1.00  0.00     0.039 C 
BRANCH   9  23
ATOM     23  O   UNL     1      25.686  -0.859   5.005  1.00  0.00    -0.507 OA
ATOM     24  H   UNL     1      25.999  -1.693   4.562  1.00  0.00     0.293 HD
ENDBRANCH   9  23
ENDBRANCH   5   6
ENDBRANCH   1   5
TORSDOF 5
