REMARK SMILES CCCCCc1cc(O)c2c(c1)OC(C)(C)[C@@H]1CCC(C)=C[C@@H]21
REMARK SMILES IDX 4 1 3 2 2 3 1 4 5 5 6 6 7 7 12 8 8 9 11 10 10 11 13 12 23 13
REMARK SMILES IDX 14 14 22 15 17 16 20 17 18 18 19 19 15 20 16 21 21 22 9 23
REMARK H PARENT 9 24
ROOT
ATOM      1  C   UNL     1      30.985   0.069   2.994  1.00  0.00     0.005 C 
ENDROOT
BRANCH   1   2
ATOM      2  C   UNL     1      31.289   1.341   3.718  1.00  0.00     0.000 C 
BRANCH   2   3
ATOM      3  C   UNL     1      32.580   1.116   4.431  1.00  0.00    -0.003 C 
ATOM      4  C   UNL     1      32.955   2.348   5.181  1.00  0.00     0.004 C 
ENDBRANCH   2   3
ENDBRANCH   1   2
BRANCH   1   5
ATOM      5  C   UNL     1      29.769   0.093   2.203  1.00  0.00     0.036 C 
BRANCH   5   6
ATOM      6  C   UNL     1      28.522   0.389   2.889  1.00  0.00    -0.041 A 
ATOM      7  C   UNL     1      27.982  -0.610   3.696  1.00  0.00     0.050 A 
ATOM      8  C   UNL     1      27.825   1.581   2.648  1.00  0.00     0.050 A 
ATOM      9  C   UNL     1      26.729  -0.416   4.258  1.00  0.00     0.123 A 
ATOM     10  C   UNL     1      26.558   1.769   3.220  1.00  0.00     0.127 A 
ATOM     11  C   UNL     1      26.011   0.764   4.011  1.00  0.00     0.043 A 
ATOM     12  O   UNL     1      25.963   3.007   2.962  1.00  0.00    -0.487 OA
ATOM     13  C   UNL     1      24.700   1.004   4.656  1.00  0.00     0.056 C 
ATOM     14  C   UNL     1      24.684   3.307   3.536  1.00  0.00     0.107 C 
ATOM     15  C   UNL     1      23.828  -0.238   4.173  1.00  0.00    -0.019 C 
ATOM     16  C   UNL     1      23.995   2.057   3.858  1.00  0.00     0.044 C 
ATOM     17  C   UNL     1      22.531  -0.155   4.266  1.00  0.00    -0.077 C 
ATOM     18  C   UNL     1      22.633   2.316   4.472  1.00  0.00     0.013 C 
ATOM     19  C   UNL     1      21.914   1.067   4.814  1.00  0.00     0.031 C 
ATOM     20  C   UNL     1      23.955   3.781   2.140  1.00  0.00     0.056 C 
ATOM     21  C   UNL     1      24.616   4.520   4.336  1.00  0.00     0.056 C 
ATOM     22  C   UNL     1      21.665  -1.284   3.732  1.00  0.00     0.039 C 
BRANCH   9  23
ATOM     23  O   UNL     1      26.116  -1.311   5.083  1.00  0.00    -0.507 OA
ATOM     24  H   UNL     1      26.346  -2.302   5.101  1.00  0.00     0.293 HD
ENDBRANCH   9  23
ENDBRANCH   5   6
ENDBRANCH   1   5
TORSDOF 5
