REMARK SMILES CCCCCc1cc(O)c2c(c1)OC(C)(C)[C@@H]1CCC(C)=C[C@@H]21
REMARK SMILES IDX 4 1 3 2 2 3 1 4 5 5 6 6 7 7 12 8 8 9 11 10 10 11 13 12 23 13
REMARK SMILES IDX 14 14 22 15 17 16 20 17 18 18 19 19 15 20 16 21 21 22 9 23
REMARK H PARENT 9 24
ROOT
ATOM      1  C   UNL     1      30.717   1.243   4.394  1.00  0.00     0.005 C 
ENDROOT
BRANCH   1   2
ATOM      2  C   UNL     1      32.136   1.153   3.865  1.00  0.00     0.000 C 
BRANCH   2   3
ATOM      3  C   UNL     1      32.242  -0.048   2.924  1.00  0.00    -0.003 C 
ATOM      4  C   UNL     1      33.668  -0.212   2.427  1.00  0.00     0.004 C 
ENDBRANCH   2   3
ENDBRANCH   1   2
BRANCH   1   5
ATOM      5  C   UNL     1      29.775   1.364   3.254  1.00  0.00     0.036 C 
BRANCH   5   6
ATOM      6  C   UNL     1      28.341   1.383   3.659  1.00  0.00    -0.041 A 
ATOM      7  C   UNL     1      27.829   0.166   3.996  1.00  0.00     0.050 A 
ATOM      8  C   UNL     1      27.568   2.493   3.457  1.00  0.00     0.050 A 
ATOM      9  C   UNL     1      26.425   0.005   4.146  1.00  0.00     0.123 A 
ATOM     10  C   UNL     1      26.172   2.324   3.606  1.00  0.00     0.127 A 
ATOM     11  C   UNL     1      25.561   1.152   3.921  1.00  0.00     0.043 A 
ATOM     12  O   UNL     1      25.451   3.534   3.480  1.00  0.00    -0.487 OA
ATOM     13  C   UNL     1      24.095   1.026   4.022  1.00  0.00     0.056 C 
ATOM     14  C   UNL     1      23.970   3.497   3.751  1.00  0.00     0.107 C 
ATOM     15  C   UNL     1      23.547  -0.299   3.643  1.00  0.00    -0.019 C 
ATOM     16  C   UNL     1      23.570   2.160   3.295  1.00  0.00     0.044 C 
ATOM     17  C   UNL     1      22.349  -0.541   3.053  1.00  0.00    -0.077 C 
ATOM     18  C   UNL     1      21.995   1.989   3.350  1.00  0.00     0.013 C 
ATOM     19  C   UNL     1      21.596   0.614   2.748  1.00  0.00     0.031 C 
ATOM     20  C   UNL     1      23.729   3.806   5.138  1.00  0.00     0.056 C 
ATOM     21  C   UNL     1      23.494   4.647   2.900  1.00  0.00     0.056 C 
ATOM     22  C   UNL     1      22.003  -1.973   2.677  1.00  0.00     0.039 C 
BRANCH   9  23
ATOM     23  O   UNL     1      26.081  -1.265   4.498  1.00  0.00    -0.507 OA
ATOM     24  H   UNL     1      26.477  -1.988   3.960  1.00  0.00     0.293 HD
ENDBRANCH   9  23
ENDBRANCH   5   6
ENDBRANCH   1   5
TORSDOF 5
