REMARK SMILES CCCCCC1CC(O)C2C(C1)OC(C)(C)[C@H]1CCC(C)CC21
REMARK SMILES IDX 4 1 3 2 2 3 1 4 5 5 6 6 7 7 12 8 8 9 11 10 10 11 13 12 23 13
REMARK SMILES IDX 14 14 22 15 17 16 20 17 18 18 19 19 15 20 16 21 21 22 9 23
REMARK H PARENT 9 24
ROOT
ATOM      1  C   UNL     1      -4.334 -12.189   0.548  1.00  0.00     0.000 C 
ENDROOT
BRANCH   1   2
ATOM      2  C   UNL     1      -4.359 -11.852   1.891  1.00  0.00    -0.000 C 
BRANCH   2   3
ATOM      3  C   UNL     1      -3.901 -11.378   2.913  1.00  0.00    -0.003 C 
ATOM      4  C   UNL     1      -3.336 -10.832   3.862  1.00  0.00     0.004 C 
ENDBRANCH   2   3
ENDBRANCH   1   2
BRANCH   1   5
ATOM      5  C   UNL     1      -3.394 -11.331  -0.179  1.00  0.00     0.004 C 
BRANCH   5   6
ATOM      6  C   UNL     1      -3.862  -9.910  -0.314  1.00  0.00    -0.006 C 
ATOM      7  C   UNL     1      -4.325  -9.478  -1.574  1.00  0.00     0.036 C 
ATOM      8  C   UNL     1      -3.822  -9.019   0.752  1.00  0.00     0.036 C 
ATOM      9  C   UNL     1      -4.724  -8.158  -1.721  1.00  0.00     0.120 C 
ATOM     10  C   UNL     1      -4.234  -7.716   0.590  1.00  0.00     0.125 C 
ATOM     11  C   UNL     1      -4.675  -7.234  -0.665  1.00  0.00     0.050 C 
ATOM     12  O   UNL     1      -4.219  -6.878   1.656  1.00  0.00    -0.372 OA
ATOM     13  C   UNL     1      -5.044  -5.800  -0.795  1.00  0.00     0.003 C 
ATOM     14  C   UNL     1      -4.054  -5.472   1.525  1.00  0.00     0.066 C 
ATOM     15  C   UNL     1      -5.625  -5.272  -1.946  1.00  0.00     0.007 C 
ATOM     16  C   UNL     1      -4.782  -4.947   0.316  1.00  0.00     0.024 C 
ATOM     17  C   UNL     1      -5.922  -3.902  -2.011  1.00  0.00    -0.014 C 
ATOM     18  C   UNL     1      -5.075  -3.563   0.206  1.00  0.00     0.007 C 
ATOM     19  C   UNL     1      -5.658  -3.047  -0.938  1.00  0.00     0.004 C 
ATOM     20  C   UNL     1      -4.590  -4.907   2.798  1.00  0.00     0.042 C 
ATOM     21  C   UNL     1      -2.577  -5.177   1.351  1.00  0.00     0.042 C 
ATOM     22  C   UNL     1      -6.518  -3.336  -3.258  1.00  0.00     0.007 C 
BRANCH   9  23
ATOM     23  O   UNL     1      -5.172  -7.794  -2.910  1.00  0.00    -0.393 OA
ATOM     24  H   UNL     1      -5.936  -7.174  -2.799  1.00  0.00     0.210 HD
ENDBRANCH   9  23
ENDBRANCH   5   6
ENDBRANCH   1   5
TORSDOF 5
