REMARK SMILES C[C@](O)(CS(O)(O)C1CCC(F)CC1)[C@@H](O)NC1CCC(CN)[C@H](C(F)(F)F)C1
REMARK SMILES IDX 15 1 2 2 1 3 3 4 4 6 5 7 6 8 7 10 8 12 9 13 14 14 10 15
REMARK SMILES IDX 13 16 11 17 12 18 16 19 17 21 18 23 19 24 29 25 20 26 24 27
REMARK SMILES IDX 21 28 25 29 26 30 27 31 28 32 22 33 23 34
REMARK H PARENT 3 5 6 9 7 11 16 20 17 22 23 35 23 36
ROOT
ATOM      1  C   UNL     1      -7.176   3.856   2.965  1.00  0.00     0.215 C 
ENDROOT
BRANCH   1   2
ATOM      2  C   UNL     1      -7.770   5.125   3.585  1.00  0.00     0.113 C 
ATOM      3  C   UNL     1      -8.956   5.614   2.714  1.00  0.00     0.047 C 
BRANCH   2   4
ATOM      4  O   UNL     1      -8.241   4.888   4.877  1.00  0.00    -0.385 OA
ATOM      5  H   UNL     1      -7.580   5.220   5.535  1.00  0.00     0.211 HD
ENDBRANCH   2   4
BRANCH   2   6
ATOM      6  C   UNL     1      -6.685   6.214   3.638  1.00  0.00     0.142 C 
BRANCH   6   7
ATOM      7  S   UNL     1      -5.372   5.924   4.733  1.00  0.00    -0.031 S 
BRANCH   7   8
ATOM      8  O   UNL     1      -5.609   6.749   5.928  1.00  0.00    -0.328 OA
ATOM      9  H   UNL     1      -5.453   6.205   6.741  1.00  0.00     0.229 HD
ENDBRANCH   7   8
BRANCH   7  10
ATOM     10  O   UNL     1      -5.172   4.549   4.985  1.00  0.00    -0.328 OA
ATOM     11  H   UNL     1      -5.149   4.393   5.962  1.00  0.00     0.229 HD
ENDBRANCH   7  10
BRANCH   7  12
ATOM     12  C   UNL     1      -3.957   6.526   3.957  1.00  0.00     0.077 C 
ATOM     13  C   UNL     1      -3.748   7.881   3.908  1.00  0.00     0.020 C 
ATOM     14  C   UNL     1      -3.072   5.649   3.327  1.00  0.00     0.020 C 
ATOM     15  C   UNL     1      -2.652   8.382   3.252  1.00  0.00     0.039 C 
ATOM     16  C   UNL     1      -1.961   6.170   2.673  1.00  0.00     0.039 C 
ATOM     17  C   UNL     1      -1.772   7.527   2.643  1.00  0.00     0.166 C 
ATOM     18  F   UNL     1      -0.700   8.032   1.993  1.00  0.00    -0.247 F 
ENDBRANCH   7  12
ENDBRANCH   6   7
ENDBRANCH   2   6
ENDBRANCH   1   2
BRANCH   1  19
ATOM     19  O   UNL     1      -6.764   3.850   1.807  1.00  0.00    -0.376 OA
ATOM     20  H   UNL     1      -5.774   3.836   1.809  1.00  0.00     0.212 HD
ENDBRANCH   1  19
BRANCH   1  21
ATOM     21  N   UNL     1      -7.095   2.820   3.794  1.00  0.00    -0.287 NA
ATOM     22  H   UNL     1      -6.573   3.177   4.607  1.00  0.00     0.125 HD
BRANCH  21  23
ATOM     23  C   UNL     1      -6.543   1.558   3.545  1.00  0.00     0.056 C 
ATOM     24  C   UNL     1      -6.213   0.769   4.617  1.00  0.00     0.019 C 
ATOM     25  C   UNL     1      -6.300   1.114   2.249  1.00  0.00     0.032 C 
ATOM     26  C   UNL     1      -5.663  -0.463   4.451  1.00  0.00     0.007 C 
ATOM     27  C   UNL     1      -5.748  -0.131   2.029  1.00  0.00     0.100 C 
ATOM     28  C   UNL     1      -5.412  -0.924   3.171  1.00  0.00     0.015 C 
BRANCH  27  29
ATOM     29  C   UNL     1      -5.472  -0.549   0.586  1.00  0.00     0.392 C 
ATOM     30  F   UNL     1      -5.562  -1.841   0.423  1.00  0.00    -0.171 F 
ATOM     31  F   UNL     1      -4.257  -0.158   0.233  1.00  0.00    -0.171 F 
ATOM     32  F   UNL     1      -6.345   0.038  -0.234  1.00  0.00    -0.171 F 
ENDBRANCH  27  29
BRANCH  28  33
ATOM     33  C   UNL     1      -4.840  -2.189   3.046  1.00  0.00     0.081 C 
BRANCH  33  34
ATOM     34  N   UNL     1      -4.374  -3.185   3.044  1.00  0.00    -0.330 NA
ATOM     35  H   UNL     1      -4.228  -3.498   4.014  1.00  0.00     0.118 HD
ATOM     36  H   UNL     1      -4.991  -3.852   2.558  1.00  0.00     0.118 HD
ENDBRANCH  33  34
ENDBRANCH  28  33
ENDBRANCH  21  23
ENDBRANCH   1  21
TORSDOF 13
