REMARK SMILES C[C@]1(O)CC[C@H]2[C@@H]3CCC4CC(O)CC[C@@H]4[C@H]3CC[C@@]21C
REMARK SMILES IDX 1 1 2 2 4 3 5 4 6 5 7 6 8 7 9 8 10 9 11 10 12 11 14 12 15 13
REMARK SMILES IDX 16 14 17 15 18 16 19 17 20 18 21 19 3 20 13 22
REMARK H PARENT 3 21 13 23
ROOT
ATOM      1  C   UNL     1      -6.060 -10.510   1.312  1.00  0.00     0.042 C 
ATOM      2  C   UNL     1      -4.678  -9.919   1.603  1.00  0.00     0.068 C 
ATOM      3  C   UNL     1      -4.691  -9.433   3.074  1.00  0.00     0.036 C 
ATOM      4  C   UNL     1      -4.909  -7.870   3.011  1.00  0.00     0.007 C 
ATOM      5  C   UNL     1      -5.252  -7.613   1.538  1.00  0.00     0.001 C 
ATOM      6  C   UNL     1      -5.173  -6.191   0.971  1.00  0.00    -0.004 C 
ATOM      7  C   UNL     1      -5.996  -5.220   1.777  1.00  0.00     0.004 C 
ATOM      8  C   UNL     1      -5.937  -3.865   1.211  1.00  0.00     0.004 C 
ATOM      9  C   UNL     1      -6.032  -3.779  -0.249  1.00  0.00    -0.005 C 
ATOM     10  C   UNL     1      -6.304  -2.545  -0.842  1.00  0.00     0.035 C 
ATOM     11  C   UNL     1      -6.415  -2.432  -2.201  1.00  0.00     0.114 C 
ATOM     12  C   UNL     1      -6.219  -3.526  -3.042  1.00  0.00     0.032 C 
ATOM     13  C   UNL     1      -5.948  -4.760  -2.495  1.00  0.00     0.007 C 
ATOM     14  C   UNL     1      -5.832  -4.905  -1.080  1.00  0.00    -0.004 C 
ATOM     15  C   UNL     1      -5.678  -6.261  -0.496  1.00  0.00    -0.004 C 
ATOM     16  C   UNL     1      -4.753  -7.221  -1.319  1.00  0.00     0.005 C 
ATOM     17  C   UNL     1      -4.741  -8.671  -0.699  1.00  0.00     0.010 C 
ATOM     18  C   UNL     1      -4.375  -8.637   0.785  1.00  0.00    -0.001 C 
ATOM     19  C   UNL     1      -2.878  -8.301   0.907  1.00  0.00     0.015 C 
ENDROOT
BRANCH   2  20
ATOM     20  O   UNL     1      -3.725 -10.918   1.403  1.00  0.00    -0.390 OA
ATOM     21  H   UNL     1      -3.407 -11.251   2.279  1.00  0.00     0.211 HD
ENDBRANCH   2  20
BRANCH  11  22
ATOM     22  O   UNL     1      -6.677  -1.225  -2.748  1.00  0.00    -0.393 OA
ATOM     23  H   UNL     1      -6.821  -0.561  -2.028  1.00  0.00     0.210 HD
ENDBRANCH  11  22
TORSDOF 2
