REMARK SMILES C[C@]12CCC(O)C[C@@H]1CC[C@@H]1[C@@H]2CC[C@]2(C)[C@@H](O)CC[C@@H]12
REMARK SMILES IDX 16 1 15 2 14 3 13 4 12 5 11 6 10 7 9 8 8 9 7 10 5 11 4 12
REMARK SMILES IDX 3 13 2 14 1 15 21 16 20 17 19 18 17 19 18 20 6 22
REMARK H PARENT 18 21 6 23
ROOT
ATOM      1  C   UNL     1       0.622   4.115 -10.936  1.00  0.00     0.014 C 
ATOM      2  C   UNL     1       1.986   4.880 -10.926  1.00  0.00    -0.003 C 
ATOM      3  C   UNL     1       3.133   3.903 -10.955  1.00  0.00     0.010 C 
ATOM      4  C   UNL     1       3.200   3.143  -9.639  1.00  0.00     0.005 C 
ATOM      5  C   UNL     1       3.252   4.029  -8.412  1.00  0.00    -0.001 C 
ATOM      6  C   UNL     1       2.112   5.042  -8.410  1.00  0.00    -0.004 C 
ATOM      7  C   UNL     1       2.237   5.964  -7.202  1.00  0.00     0.004 C 
ATOM      8  C   UNL     1       2.335   5.196  -5.863  1.00  0.00     0.004 C 
ATOM      9  C   UNL     1       3.478   4.204  -5.929  1.00  0.00    -0.002 C 
ATOM     10  C   UNL     1       3.732   3.517  -4.586  1.00  0.00     0.036 C 
ATOM     11  C   UNL     1       4.891   2.631  -4.664  1.00  0.00     0.114 C 
ATOM     12  C   UNL     1       4.946   1.696  -5.793  1.00  0.00     0.032 C 
ATOM     13  C   UNL     1       4.646   2.371  -7.118  1.00  0.00     0.010 C 
ATOM     14  C   UNL     1       3.358   3.233  -7.088  1.00  0.00    -0.026 C 
ATOM     15  C   UNL     1       2.123   2.267  -6.910  1.00  0.00     0.012 C 
ATOM     16  C   UNL     1       2.146   5.803  -9.699  1.00  0.00     0.001 C 
ATOM     17  C   UNL     1       1.108   6.898  -9.920  1.00  0.00     0.007 C 
ATOM     18  C   UNL     1       1.153   7.119 -11.435  1.00  0.00     0.032 C 
ATOM     19  C   UNL     1       1.993   5.960 -12.025  1.00  0.00     0.120 C 
ENDROOT
BRANCH  19  20
ATOM     20  O   UNL     1       1.579   5.563 -13.278  1.00  0.00    -0.393 OA
ATOM     21  H   UNL     1       0.867   4.881 -13.190  1.00  0.00     0.210 HD
ENDBRANCH  19  20
BRANCH  11  22
ATOM     22  O   UNL     1       5.804   2.639  -3.781  1.00  0.00    -0.393 OA
ATOM     23  H   UNL     1       5.392   2.635  -2.881  1.00  0.00     0.210 HD
ENDBRANCH  11  22
TORSDOF 2
