REMARK SMILES C=C(C)[C@@H]1CCC(C)=C[C@H]1c1c(O)cc(CCCCC)cc1O
REMARK SMILES IDX 16 1 15 2 11 3 12 4 22 5 14 6 21 7 10 8 4 9 5 10 6 11 9 12
REMARK SMILES IDX 7 13 8 14 2 15 1 16 3 17 13 18 23 20 17 22 18 23 19 24 20 25
REMARK H PARENT 13 19 23 21
ROOT
ATOM      1  C   UNL     1      28.822   3.784   5.159  1.00  0.00     0.036 C 
ENDROOT
BRANCH   1   2
ATOM      2  C   UNL     1      27.531   3.158   5.306  1.00  0.00    -0.041 A 
ATOM      3  C   UNL     1      24.840   2.460   5.274  1.00  0.00     0.043 A 
ATOM      4  C   UNL     1      25.513   2.542   6.486  1.00  0.00     0.123 A 
ATOM      5  C   UNL     1      25.500   2.709   4.059  1.00  0.00     0.123 A 
ATOM      6  C   UNL     1      26.852   2.888   6.481  1.00  0.00     0.050 A 
ATOM      7  C   UNL     1      26.819   3.053   4.067  1.00  0.00     0.050 A 
BRANCH   3   8
ATOM      8  C   UNL     1      23.363   2.529   5.258  1.00  0.00     0.056 C 
ATOM      9  C   UNL     1      22.418   1.602   5.745  1.00  0.00     0.026 C 
ATOM     10  C   UNL     1      21.422   2.326   6.696  1.00  0.00     0.013 C 
ATOM     11  C   UNL     1      20.793   3.462   5.850  1.00  0.00     0.031 C 
ATOM     12  C   UNL     1      23.126   3.984   5.663  1.00  0.00    -0.019 C 
ATOM     13  C   UNL     1      21.941   4.486   5.943  1.00  0.00    -0.077 C 
ATOM     14  C   UNL     1      21.755   5.884   6.336  1.00  0.00     0.039 C 
BRANCH   9  15
ATOM     15  C   UNL     1      21.694   0.707   4.799  1.00  0.00    -0.076 C 
ATOM     16  C   UNL     1      21.735  -0.635   5.067  1.00  0.00     0.008 C 
ATOM     17  C   UNL     1      20.951   1.064   3.595  1.00  0.00     0.039 C 
ENDBRANCH   9  15
ENDBRANCH   3   8
BRANCH   4  18
ATOM     18  O   UNL     1      24.881   2.288   7.690  1.00  0.00    -0.507 OA
ATOM     19  H   UNL     1      24.796   1.305   7.920  1.00  0.00     0.293 HD
ENDBRANCH   4  18
BRANCH   5  20
ATOM     20  O   UNL     1      24.812   2.593   2.841  1.00  0.00    -0.507 OA
ATOM     21  H   UNL     1      24.757   1.651   2.441  1.00  0.00     0.293 HD
ENDBRANCH   5  20
ENDBRANCH   1   2
BRANCH   1  22
ATOM     22  C   UNL     1      30.082   3.160   4.947  1.00  0.00     0.005 C 
BRANCH  22  23
ATOM     23  C   UNL     1      30.675   2.276   6.002  1.00  0.00     0.000 C 
BRANCH  23  24
ATOM     24  C   UNL     1      32.080   1.887   5.401  1.00  0.00    -0.003 C 
ATOM     25  C   UNL     1      32.831   1.150   6.441  1.00  0.00     0.004 C 
ENDBRANCH  23  24
ENDBRANCH  22  23
ENDBRANCH   1  22
TORSDOF 8
