REMARK SMILES C=C(C)[C@@H]1CCC(C)=C[C@H]1c1c(O)cc(CCCCC)cc1O
REMARK SMILES IDX 16 1 15 2 11 3 12 4 22 5 14 6 21 7 10 8 4 9 5 10 6 11 9 12
REMARK SMILES IDX 7 13 8 14 2 15 1 16 3 17 13 18 23 20 17 22 18 23 19 24 20 25
REMARK H PARENT 13 19 23 21
ROOT
ATOM      1  C   UNL     1      29.264   1.536   4.775  1.00  0.00     0.036 C 
ENDROOT
BRANCH   1   2
ATOM      2  C   UNL     1      27.857   1.861   4.971  1.00  0.00    -0.041 A 
ATOM      3  C   UNL     1      25.061   2.135   5.150  1.00  0.00     0.043 A 
ATOM      4  C   UNL     1      25.650   2.033   3.917  1.00  0.00     0.123 A 
ATOM      5  C   UNL     1      25.916   2.078   6.197  1.00  0.00     0.123 A 
ATOM      6  C   UNL     1      26.981   1.913   3.829  1.00  0.00     0.050 A 
ATOM      7  C   UNL     1      27.317   1.933   6.223  1.00  0.00     0.050 A 
BRANCH   3   8
ATOM      8  C   UNL     1      23.600   2.345   5.314  1.00  0.00     0.056 C 
ATOM      9  C   UNL     1      22.755   1.362   5.944  1.00  0.00     0.026 C 
ATOM     10  C   UNL     1      22.107   1.794   7.213  1.00  0.00     0.013 C 
ATOM     11  C   UNL     1      21.255   2.973   6.791  1.00  0.00     0.031 C 
ATOM     12  C   UNL     1      23.353   3.822   5.761  1.00  0.00    -0.019 C 
ATOM     13  C   UNL     1      22.194   4.094   6.512  1.00  0.00    -0.077 C 
ATOM     14  C   UNL     1      21.939   5.501   6.949  1.00  0.00     0.039 C 
BRANCH   9  15
ATOM     15  C   UNL     1      21.742   0.825   5.034  1.00  0.00    -0.076 C 
ATOM     16  C   UNL     1      21.264  -0.450   5.066  1.00  0.00     0.008 C 
ATOM     17  C   UNL     1      21.139   1.630   3.883  1.00  0.00     0.039 C 
ENDBRANCH   9  15
ENDBRANCH   3   8
BRANCH   4  18
ATOM     18  O   UNL     1      24.846   2.094   2.818  1.00  0.00    -0.507 OA
ATOM     19  H   UNL     1      24.682   1.194   2.330  1.00  0.00     0.293 HD
ENDBRANCH   4  18
BRANCH   5  20
ATOM     20  O   UNL     1      25.431   2.199   7.555  1.00  0.00    -0.507 OA
ATOM     21  H   UNL     1      25.358   1.159   7.844  1.00  0.00     0.293 HD
ENDBRANCH   5  20
ENDBRANCH   1   2
BRANCH   1  22
ATOM     22  C   UNL     1      29.918   0.885   5.938  1.00  0.00     0.005 C 
BRANCH  22  23
ATOM     23  C   UNL     1      30.713   1.800   6.863  1.00  0.00     0.000 C 
BRANCH  23  24
ATOM     24  C   UNL     1      31.787   2.441   5.949  1.00  0.00    -0.003 C 
ATOM     25  C   UNL     1      32.865   3.042   6.800  1.00  0.00     0.004 C 
ENDBRANCH  23  24
ENDBRANCH  22  23
ENDBRANCH   1  22
TORSDOF 8
