REMARK SMILES C[C@](O)(CS(=O)(=O)c1ccc(F)cc1)C(=O)Nc1ccc(C#N)c(C(F)(F)F)c1
REMARK SMILES IDX 1 1 2 2 3 3 4 5 5 6 6 7 7 8 8 9 9 10 14 11 10 12 13 13 11 14
REMARK SMILES IDX 12 15 15 16 16 17 17 18 18 20 19 21 29 22 20 23 24 24 21 25
REMARK SMILES IDX 22 26 23 27 25 28 26 29 27 30 28 31
REMARK H PARENT 3 4 17 19
ROOT
ATOM      1  C   UNL     1      26.604   5.411   5.970  1.00  0.00     0.054 C 
ATOM      2  C   UNL     1      26.531   4.274   4.967  1.00  0.00     0.154 C 
ENDROOT
BRANCH   2   3
ATOM      3  O   UNL     1      26.415   4.849   3.686  1.00  0.00    -0.379 OA
ATOM      4  H   UNL     1      26.973   4.365   3.010  1.00  0.00     0.212 HD
ENDBRANCH   2   3
BRANCH   2   5
ATOM      5  C   UNL     1      25.271   3.516   5.223  1.00  0.00     0.187 C 
BRANCH   5   6
ATOM      6  S   UNL     1      25.040   2.137   4.116  1.00  0.00     0.181 S 
ATOM      7  O   UNL     1      26.158   1.168   4.370  1.00  0.00    -0.224 OA
ATOM      8  O   UNL     1      24.998   2.565   2.699  1.00  0.00    -0.224 OA
BRANCH   6   9
ATOM      9  C   UNL     1      23.525   1.320   4.513  1.00  0.00     0.067 A 
ATOM     10  C   UNL     1      23.477   0.290   5.423  1.00  0.00     0.023 A 
ATOM     11  C   UNL     1      22.383   1.757   3.871  1.00  0.00     0.023 A 
ATOM     12  C   UNL     1      22.248  -0.307   5.685  1.00  0.00     0.040 A 
ATOM     13  C   UNL     1      21.164   1.181   4.117  1.00  0.00     0.040 A 
ATOM     14  C   UNL     1      21.095   0.136   5.035  1.00  0.00     0.123 A 
ATOM     15  F   UNL     1      19.909  -0.456   5.303  1.00  0.00    -0.207 F 
ENDBRANCH   6   9
ENDBRANCH   5   6
ENDBRANCH   2   5
BRANCH   2  16
ATOM     16  C   UNL     1      27.738   3.448   4.957  1.00  0.00     0.257 C 
ATOM     17  O   UNL     1      28.456   3.356   3.916  1.00  0.00    -0.271 OA
ATOM     18  N   UNL     1      28.184   2.703   6.089  1.00  0.00    -0.324 N 
ATOM     19  H   UNL     1      27.597   2.770   6.959  1.00  0.00     0.170 HD
BRANCH  18  20
ATOM     20  C   UNL     1      29.369   1.915   6.019  1.00  0.00     0.041 A 
ATOM     21  C   UNL     1      29.395   0.611   5.640  1.00  0.00     0.027 A 
ATOM     22  C   UNL     1      30.583   2.519   6.360  1.00  0.00     0.040 A 
ATOM     23  C   UNL     1      30.571  -0.109   5.588  1.00  0.00     0.022 A 
ATOM     24  C   UNL     1      31.774   1.817   6.316  1.00  0.00     0.075 A 
ATOM     25  C   UNL     1      31.760   0.508   5.930  1.00  0.00     0.064 A 
ATOM     26  C   UNL     1      32.953  -0.285   5.859  1.00  0.00     0.100 C 
ATOM     27  N   UNL     1      33.906  -0.935   5.806  1.00  0.00    -0.192 NA
BRANCH  24  28
ATOM     28  C   UNL     1      33.080   2.429   6.672  1.00  0.00     0.417 C 
ATOM     29  F   UNL     1      32.828   3.742   7.023  1.00  0.00    -0.166 F 
ATOM     30  F   UNL     1      33.716   1.725   7.662  1.00  0.00    -0.166 F 
ATOM     31  F   UNL     1      33.877   2.478   5.527  1.00  0.00    -0.166 F 
ENDBRANCH  24  28
ENDBRANCH  18  20
ENDBRANCH   2  16
TORSDOF 7
