REMARK SMILES C[C@]12CC[C@H]3[C@@H](CCC4=CC(=O)CC[C@@]43C)[C@@H]1CC[C@@H]2O
REMARK SMILES IDX 1 1 2 2 3 3 4 4 5 5 6 6 17 7 18 8 19 9 20 10 7 11 8 12 9 13
REMARK SMILES IDX 10 14 11 15 12 16 13 17 14 18 15 19 16 20 21 21
REMARK H PARENT 21 22
ROOT
ATOM      1  C   UNL     1      31.289   0.508   5.358  1.00  0.00     0.014 C 
ATOM      2  C   UNL     1      30.972   0.699   6.844  1.00  0.00    -0.003 C 
ATOM      3  C   UNL     1      30.167  -0.486   7.372  1.00  0.00     0.010 C 
ATOM      4  C   UNL     1      28.765  -0.500   6.756  1.00  0.00     0.005 C 
ATOM      5  C   UNL     1      28.006   0.816   6.982  1.00  0.00     0.002 C 
ATOM      6  C   UNL     1      28.821   2.021   6.477  1.00  0.00    -0.003 C 
ATOM      7  C   UNL     1      30.186   1.979   7.158  1.00  0.00     0.001 C 
ATOM      8  C   UNL     1      31.190   3.099   6.877  1.00  0.00     0.007 C 
ATOM      9  C   UNL     1      32.534   2.503   7.336  1.00  0.00     0.032 C 
ATOM     10  C   UNL     1      32.285   0.997   7.608  1.00  0.00     0.120 C 
ATOM     11  C   UNL     1      28.085   3.315   6.806  1.00  0.00     0.008 C 
ATOM     12  C   UNL     1      26.706   3.315   6.153  1.00  0.00     0.032 C 
ATOM     13  C   UNL     1      25.905   2.123   6.574  1.00  0.00    -0.060 C 
ATOM     14  C   UNL     1      24.656   2.277   7.029  1.00  0.00     0.047 C 
ATOM     15  C   UNL     1      23.738   1.184   7.339  1.00  0.00     0.155 C 
ATOM     16  O   UNL     1      22.636   1.365   7.813  1.00  0.00    -0.295 OA
ATOM     17  C   UNL     1      24.253  -0.186   6.960  1.00  0.00     0.081 C 
ATOM     18  C   UNL     1      25.755  -0.285   7.191  1.00  0.00     0.019 C 
ATOM     19  C   UNL     1      26.560   0.770   6.408  1.00  0.00    -0.008 C 
ATOM     20  C   UNL     1      26.542   0.428   4.907  1.00  0.00     0.016 C 
ENDROOT
BRANCH  10  21
ATOM     21  O   UNL     1      33.376   0.176   7.298  1.00  0.00    -0.393 OA
ATOM     22  H   UNL     1      33.588   0.286   6.364  1.00  0.00     0.210 HD
ENDBRANCH  10  21
TORSDOF 1
