REMARK SMILES CCCCCc1cc(O)c2c(c1)OC(C)(C)[C@@H]1CCC(C)=C[C@@H]21
REMARK SMILES IDX 4 1 3 2 2 3 1 4 5 5 6 6 7 7 12 8 8 9 11 10 10 11 13 12 23 13
REMARK SMILES IDX 14 14 22 15 17 16 20 17 18 18 19 19 15 20 16 21 21 22 9 23
REMARK H PARENT 9 24
ROOT
ATOM      1  C   UNL     1      30.291   2.328   5.936  1.00  0.00     0.005 C 
ENDROOT
BRANCH   1   2
ATOM      2  C   UNL     1      31.710   2.238   5.407  1.00  0.00     0.000 C 
BRANCH   2   3
ATOM      3  C   UNL     1      31.816   1.037   4.466  1.00  0.00    -0.003 C 
ATOM      4  C   UNL     1      33.242   0.873   3.969  1.00  0.00     0.004 C 
ENDBRANCH   2   3
ENDBRANCH   1   2
BRANCH   1   5
ATOM      5  C   UNL     1      29.349   2.449   4.796  1.00  0.00     0.036 C 
BRANCH   5   6
ATOM      6  C   UNL     1      27.915   2.468   5.201  1.00  0.00    -0.041 A 
ATOM      7  C   UNL     1      27.403   1.251   5.538  1.00  0.00     0.050 A 
ATOM      8  C   UNL     1      27.142   3.578   4.999  1.00  0.00     0.050 A 
ATOM      9  C   UNL     1      25.999   1.090   5.688  1.00  0.00     0.123 A 
ATOM     10  C   UNL     1      25.746   3.409   5.148  1.00  0.00     0.127 A 
ATOM     11  C   UNL     1      25.135   2.237   5.463  1.00  0.00     0.043 A 
ATOM     12  O   UNL     1      25.025   4.619   5.022  1.00  0.00    -0.487 OA
ATOM     13  C   UNL     1      23.669   2.111   5.564  1.00  0.00     0.056 C 
ATOM     14  C   UNL     1      23.544   4.582   5.293  1.00  0.00     0.107 C 
ATOM     15  C   UNL     1      23.121   0.786   5.185  1.00  0.00    -0.019 C 
ATOM     16  C   UNL     1      23.144   3.245   4.837  1.00  0.00     0.044 C 
ATOM     17  C   UNL     1      21.923   0.544   4.595  1.00  0.00    -0.077 C 
ATOM     18  C   UNL     1      21.569   3.074   4.892  1.00  0.00     0.013 C 
ATOM     19  C   UNL     1      21.170   1.699   4.290  1.00  0.00     0.031 C 
ATOM     20  C   UNL     1      23.303   4.891   6.680  1.00  0.00     0.056 C 
ATOM     21  C   UNL     1      23.068   5.732   4.442  1.00  0.00     0.056 C 
ATOM     22  C   UNL     1      21.577  -0.888   4.219  1.00  0.00     0.039 C 
BRANCH   9  23
ATOM     23  O   UNL     1      25.655  -0.180   6.040  1.00  0.00    -0.507 OA
ATOM     24  H   UNL     1      26.051  -0.903   5.502  1.00  0.00     0.293 HD
ENDBRANCH   9  23
ENDBRANCH   5   6
ENDBRANCH   1   5
TORSDOF 5
