REMARK SMILES C[C@]1(O)CC[C@H]2[C@@H]3CCC4=CC(=O)CCC4=C3C=C[C@@]21C
REMARK SMILES IDX 1 1 2 2 4 3 5 4 6 5 7 6 8 7 9 8 10 9 11 10 12 11 13 12 14 13
REMARK SMILES IDX 15 14 16 15 17 16 18 17 19 18 20 19 21 20 3 21
REMARK H PARENT 3 22
ROOT
ATOM      1  C   UNL     1      22.877   4.155   6.096  1.00  0.00     0.043 C 
ATOM      2  C   UNL     1      23.166   2.798   5.634  1.00  0.00     0.071 C 
ATOM      3  C   UNL     1      22.929   1.591   6.417  1.00  0.00     0.036 C 
ATOM      4  C   UNL     1      24.261   0.858   6.252  1.00  0.00     0.008 C 
ATOM      5  C   UNL     1      25.215   2.032   6.015  1.00  0.00     0.009 C 
ATOM      6  C   UNL     1      26.571   1.620   5.632  1.00  0.00     0.024 C 
ATOM      7  C   UNL     1      27.307   0.794   6.563  1.00  0.00     0.013 C 
ATOM      8  C   UNL     1      28.668   0.509   5.904  1.00  0.00     0.036 C 
ATOM      9  C   UNL     1      29.355   1.800   5.674  1.00  0.00    -0.041 C 
ATOM     10  C   UNL     1      30.655   1.813   5.471  1.00  0.00     0.051 C 
ATOM     11  C   UNL     1      31.345   3.113   5.297  1.00  0.00     0.156 C 
ATOM     12  O   UNL     1      32.471   3.191   4.775  1.00  0.00    -0.295 OA
ATOM     13  C   UNL     1      30.587   4.330   5.792  1.00  0.00     0.085 C 
ATOM     14  C   UNL     1      29.254   4.346   5.114  1.00  0.00     0.044 C 
ATOM     15  C   UNL     1      28.581   3.007   5.417  1.00  0.00    -0.041 C 
ATOM     16  C   UNL     1      27.277   2.970   5.323  1.00  0.00    -0.041 C 
ATOM     17  C   UNL     1      26.387   4.054   4.839  1.00  0.00     0.000 C 
ATOM     18  C   UNL     1      25.110   3.902   4.584  1.00  0.00    -0.017 C 
ATOM     19  C   UNL     1      24.419   2.548   4.788  1.00  0.00     0.018 C 
ATOM     20  C   UNL     1      24.248   1.828   3.613  1.00  0.00     0.019 C 
ENDROOT
BRANCH   2  21
ATOM     21  O   UNL     1      22.106   2.649   4.548  1.00  0.00    -0.389 OA
ATOM     22  H   UNL     1      21.343   2.426   5.121  1.00  0.00     0.211 HD
ENDBRANCH   2  21
TORSDOF 1
