REMARK SMILES C[C@]1(O)CC[C@H]2[C@@H]3CCC4=CC(=O)CCC4=C3C=C[C@@]21C
REMARK SMILES IDX 1 1 2 2 4 3 5 4 6 5 7 6 8 7 9 8 10 9 11 10 12 11 13 12 14 13
REMARK SMILES IDX 15 14 16 15 17 16 18 17 19 18 20 19 21 20 3 21
REMARK H PARENT 3 22
ROOT
ATOM      1  C   UNL     1      22.734   3.865   6.673  1.00  0.00     0.043 C 
ATOM      2  C   UNL     1      22.921   2.905   5.575  1.00  0.00     0.071 C 
ATOM      3  C   UNL     1      22.780   1.459   6.150  1.00  0.00     0.036 C 
ATOM      4  C   UNL     1      24.095   0.853   5.969  1.00  0.00     0.008 C 
ATOM      5  C   UNL     1      25.039   2.220   5.758  1.00  0.00     0.009 C 
ATOM      6  C   UNL     1      26.251   1.637   5.228  1.00  0.00     0.024 C 
ATOM      7  C   UNL     1      27.141   0.741   5.889  1.00  0.00     0.013 C 
ATOM      8  C   UNL     1      27.922   1.236   6.995  1.00  0.00     0.036 C 
ATOM      9  C   UNL     1      28.837   2.242   6.172  1.00  0.00    -0.041 C 
ATOM     10  C   UNL     1      30.151   2.023   6.290  1.00  0.00     0.051 C 
ATOM     11  C   UNL     1      30.943   2.941   5.474  1.00  0.00     0.156 C 
ATOM     12  O   UNL     1      32.172   2.943   5.691  1.00  0.00    -0.295 OA
ATOM     13  C   UNL     1      30.271   3.786   4.470  1.00  0.00     0.085 C 
ATOM     14  C   UNL     1      28.977   4.498   5.010  1.00  0.00     0.044 C 
ATOM     15  C   UNL     1      28.191   3.190   5.276  1.00  0.00    -0.041 C 
ATOM     16  C   UNL     1      26.945   3.045   4.946  1.00  0.00    -0.041 C 
ATOM     17  C   UNL     1      26.201   4.230   4.620  1.00  0.00     0.000 C 
ATOM     18  C   UNL     1      24.765   4.166   4.549  1.00  0.00    -0.017 C 
ATOM     19  C   UNL     1      24.102   2.841   4.750  1.00  0.00     0.018 C 
ATOM     20  C   UNL     1      24.021   2.254   3.412  1.00  0.00     0.019 C 
ENDROOT
BRANCH   2  21
ATOM     21  O   UNL     1      21.817   2.937   4.668  1.00  0.00    -0.389 OA
ATOM     22  H   UNL     1      21.743   2.023   4.284  1.00  0.00     0.211 HD
ENDBRANCH   2  21
TORSDOF 1
