REMARK SMILES C[C@]1(O)CC[C@H]2[C@@H]3CCC4=CC(=O)CCC4=C3C=C[C@@]21C
REMARK SMILES IDX 1 1 2 2 4 3 5 4 6 5 7 6 8 7 9 8 10 9 11 10 12 11 13 12 14 13
REMARK SMILES IDX 15 14 16 15 17 16 18 17 19 18 20 19 21 20 3 21
REMARK H PARENT 3 22
ROOT
ATOM      1  C   UNL     1      22.511   4.225   5.759  1.00  0.00     0.043 C 
ATOM      2  C   UNL     1      23.130   2.967   5.457  1.00  0.00     0.071 C 
ATOM      3  C   UNL     1      22.927   1.785   6.444  1.00  0.00     0.036 C 
ATOM      4  C   UNL     1      24.267   1.025   6.247  1.00  0.00     0.008 C 
ATOM      5  C   UNL     1      25.206   2.222   6.069  1.00  0.00     0.009 C 
ATOM      6  C   UNL     1      26.563   1.790   5.557  1.00  0.00     0.024 C 
ATOM      7  C   UNL     1      27.322   0.835   6.359  1.00  0.00     0.013 C 
ATOM      8  C   UNL     1      28.641   0.552   5.603  1.00  0.00     0.036 C 
ATOM      9  C   UNL     1      29.319   1.852   5.422  1.00  0.00    -0.041 C 
ATOM     10  C   UNL     1      30.634   1.955   5.679  1.00  0.00     0.051 C 
ATOM     11  C   UNL     1      31.396   3.171   5.574  1.00  0.00     0.156 C 
ATOM     12  O   UNL     1      32.386   3.408   6.111  1.00  0.00    -0.295 OA
ATOM     13  C   UNL     1      30.694   4.118   4.568  1.00  0.00     0.085 C 
ATOM     14  C   UNL     1      29.279   4.360   4.919  1.00  0.00     0.044 C 
ATOM     15  C   UNL     1      28.544   3.089   5.179  1.00  0.00    -0.041 C 
ATOM     16  C   UNL     1      27.261   3.055   5.251  1.00  0.00    -0.041 C 
ATOM     17  C   UNL     1      26.469   4.308   5.151  1.00  0.00     0.000 C 
ATOM     18  C   UNL     1      25.174   4.227   5.010  1.00  0.00    -0.017 C 
ATOM     19  C   UNL     1      24.475   2.820   4.932  1.00  0.00     0.018 C 
ATOM     20  C   UNL     1      24.717   2.311   3.598  1.00  0.00     0.019 C 
ENDROOT
BRANCH   2  21
ATOM     21  O   UNL     1      22.329   2.426   4.317  1.00  0.00    -0.389 OA
ATOM     22  H   UNL     1      22.324   1.451   4.322  1.00  0.00     0.211 HD
ENDBRANCH   2  21
TORSDOF 1
