REMARK SMILES C=C(C)[C@@H]1CCC(C)=C[C@H]1c1c(O)cc(CCCCC)cc1O
REMARK SMILES IDX 16 1 15 2 11 3 12 4 22 5 14 6 21 7 10 8 4 9 5 10 6 11 9 12
REMARK SMILES IDX 7 13 8 14 2 15 1 16 3 17 13 18 23 20 17 22 18 23 19 24 20 25
REMARK H PARENT 13 19 23 21
ROOT
ATOM      1  C   UNL     1      29.101   3.931   5.212  1.00  0.00     0.036 C 
ENDROOT
BRANCH   1   2
ATOM      2  C   UNL     1      27.810   3.305   5.359  1.00  0.00    -0.041 A 
ATOM      3  C   UNL     1      25.119   2.607   5.327  1.00  0.00     0.043 A 
ATOM      4  C   UNL     1      25.792   2.689   6.539  1.00  0.00     0.123 A 
ATOM      5  C   UNL     1      25.779   2.856   4.112  1.00  0.00     0.123 A 
ATOM      6  C   UNL     1      27.131   3.035   6.534  1.00  0.00     0.050 A 
ATOM      7  C   UNL     1      27.098   3.200   4.120  1.00  0.00     0.050 A 
BRANCH   3   8
ATOM      8  C   UNL     1      23.642   2.676   5.311  1.00  0.00     0.056 C 
ATOM      9  C   UNL     1      22.697   1.749   5.798  1.00  0.00     0.026 C 
ATOM     10  C   UNL     1      21.701   2.473   6.749  1.00  0.00     0.013 C 
ATOM     11  C   UNL     1      21.072   3.609   5.903  1.00  0.00     0.031 C 
ATOM     12  C   UNL     1      23.405   4.131   5.716  1.00  0.00    -0.019 C 
ATOM     13  C   UNL     1      22.220   4.633   5.996  1.00  0.00    -0.077 C 
ATOM     14  C   UNL     1      22.034   6.031   6.389  1.00  0.00     0.039 C 
BRANCH   9  15
ATOM     15  C   UNL     1      21.973   0.854   4.852  1.00  0.00    -0.076 C 
ATOM     16  C   UNL     1      22.014  -0.488   5.120  1.00  0.00     0.008 C 
ATOM     17  C   UNL     1      21.230   1.211   3.648  1.00  0.00     0.039 C 
ENDBRANCH   9  15
ENDBRANCH   3   8
BRANCH   4  18
ATOM     18  O   UNL     1      25.160   2.435   7.743  1.00  0.00    -0.507 OA
ATOM     19  H   UNL     1      25.075   1.452   7.973  1.00  0.00     0.293 HD
ENDBRANCH   4  18
BRANCH   5  20
ATOM     20  O   UNL     1      25.091   2.740   2.894  1.00  0.00    -0.507 OA
ATOM     21  H   UNL     1      25.036   1.798   2.494  1.00  0.00     0.293 HD
ENDBRANCH   5  20
ENDBRANCH   1   2
BRANCH   1  22
ATOM     22  C   UNL     1      30.361   3.307   5.000  1.00  0.00     0.005 C 
BRANCH  22  23
ATOM     23  C   UNL     1      30.954   2.423   6.055  1.00  0.00     0.000 C 
BRANCH  23  24
ATOM     24  C   UNL     1      32.359   2.034   5.454  1.00  0.00    -0.003 C 
ATOM     25  C   UNL     1      33.110   1.297   6.494  1.00  0.00     0.004 C 
ENDBRANCH  23  24
ENDBRANCH  22  23
ENDBRANCH   1  22
TORSDOF 8
