REMARK SMILES C=C(C)[C@@H]1CCC(C)=C[C@H]1c1c(O)cc(CCCCC)cc1O
REMARK SMILES IDX 16 1 15 2 11 3 12 4 22 5 14 6 21 7 10 8 4 9 5 10 6 11 9 12
REMARK SMILES IDX 7 13 8 14 2 15 1 16 3 17 13 18 23 20 17 22 18 23 19 24 20 25
REMARK H PARENT 13 19 23 21
ROOT
ATOM      1  C   UNL     1      29.473   2.404   7.004  1.00  0.00     0.036 C 
ENDROOT
BRANCH   1   2
ATOM      2  C   UNL     1      28.202   2.573   6.319  1.00  0.00    -0.041 A 
ATOM      3  C   UNL     1      25.539   2.543   5.371  1.00  0.00     0.043 A 
ATOM      4  C   UNL     1      26.301   3.698   5.389  1.00  0.00     0.123 A 
ATOM      5  C   UNL     1      26.107   1.356   5.826  1.00  0.00     0.123 A 
ATOM      6  C   UNL     1      27.632   3.726   5.866  1.00  0.00     0.050 A 
ATOM      7  C   UNL     1      27.403   1.413   6.276  1.00  0.00     0.050 A 
BRANCH   3   8
ATOM      8  C   UNL     1      24.030   2.648   5.106  1.00  0.00     0.056 C 
ATOM      9  C   UNL     1      23.246   1.477   5.378  1.00  0.00     0.026 C 
ATOM     10  C   UNL     1      22.278   1.833   6.566  1.00  0.00     0.013 C 
ATOM     11  C   UNL     1      21.435   3.012   6.104  1.00  0.00     0.031 C 
ATOM     12  C   UNL     1      23.665   3.888   5.929  1.00  0.00    -0.019 C 
ATOM     13  C   UNL     1      22.452   4.113   6.424  1.00  0.00    -0.077 C 
ATOM     14  C   UNL     1      22.091   5.302   7.243  1.00  0.00     0.039 C 
BRANCH   9  15
ATOM     15  C   UNL     1      22.399   0.881   4.337  1.00  0.00    -0.076 C 
ATOM     16  C   UNL     1      21.185   0.581   4.250  1.00  0.00     0.008 C 
ATOM     17  C   UNL     1      23.200   0.466   3.044  1.00  0.00     0.039 C 
ENDBRANCH   9  15
ENDBRANCH   3   8
BRANCH   4  18
ATOM     18  O   UNL     1      25.848   4.948   4.959  1.00  0.00    -0.507 OA
ATOM     19  H   UNL     1      25.639   5.081   4.004  1.00  0.00     0.293 HD
ENDBRANCH   4  18
BRANCH   5  20
ATOM     20  O   UNL     1      25.497   0.138   5.847  1.00  0.00    -0.507 OA
ATOM     21  H   UNL     1      25.598  -0.495   5.028  1.00  0.00     0.293 HD
ENDBRANCH   5  20
ENDBRANCH   1   2
BRANCH   1  22
ATOM     22  C   UNL     1      30.615   1.855   6.269  1.00  0.00     0.005 C 
BRANCH  22  23
ATOM     23  C   UNL     1      31.138   2.689   5.182  1.00  0.00     0.000 C 
BRANCH  23  24
ATOM     24  C   UNL     1      32.318   1.960   4.563  1.00  0.00    -0.003 C 
ATOM     25  C   UNL     1      33.412   1.745   5.572  1.00  0.00     0.004 C 
ENDBRANCH  23  24
ENDBRANCH  22  23
ENDBRANCH   1  22
TORSDOF 8
