REMARK SMILES C[C@]12CC[C@H]3[C@@H](CCC4=CC(=O)CC[C@@]43C)[C@@H]1CC[C@@H]2O
REMARK SMILES IDX 1 1 2 2 3 3 4 4 5 5 6 6 17 7 18 8 19 9 20 10 7 11 8 12 9 13
REMARK SMILES IDX 10 14 11 15 12 16 13 17 14 18 15 19 16 20 21 21
REMARK H PARENT 21 22
ROOT
ATOM      1  C   UNL     1      30.085   1.662   4.020  1.00  0.00     0.014 C 
ATOM      2  C   UNL     1      29.767   1.852   5.506  1.00  0.00    -0.003 C 
ATOM      3  C   UNL     1      28.963   0.668   6.034  1.00  0.00     0.010 C 
ATOM      4  C   UNL     1      27.561   0.653   5.418  1.00  0.00     0.005 C 
ATOM      5  C   UNL     1      26.801   1.969   5.644  1.00  0.00     0.002 C 
ATOM      6  C   UNL     1      27.617   3.174   5.139  1.00  0.00    -0.003 C 
ATOM      7  C   UNL     1      28.981   3.132   5.820  1.00  0.00     0.001 C 
ATOM      8  C   UNL     1      29.985   4.252   5.539  1.00  0.00     0.007 C 
ATOM      9  C   UNL     1      31.330   3.657   5.998  1.00  0.00     0.032 C 
ATOM     10  C   UNL     1      31.081   2.151   6.270  1.00  0.00     0.120 C 
ATOM     11  C   UNL     1      26.880   4.469   5.468  1.00  0.00     0.008 C 
ATOM     12  C   UNL     1      25.501   4.468   4.815  1.00  0.00     0.032 C 
ATOM     13  C   UNL     1      24.700   3.277   5.236  1.00  0.00    -0.060 C 
ATOM     14  C   UNL     1      23.451   3.430   5.691  1.00  0.00     0.047 C 
ATOM     15  C   UNL     1      22.534   2.337   6.001  1.00  0.00     0.155 C 
ATOM     16  O   UNL     1      21.432   2.518   6.475  1.00  0.00    -0.295 OA
ATOM     17  C   UNL     1      23.048   0.968   5.622  1.00  0.00     0.081 C 
ATOM     18  C   UNL     1      24.550   0.868   5.853  1.00  0.00     0.019 C 
ATOM     19  C   UNL     1      25.355   1.923   5.070  1.00  0.00    -0.008 C 
ATOM     20  C   UNL     1      25.338   1.581   3.569  1.00  0.00     0.016 C 
ENDROOT
BRANCH  10  21
ATOM     21  O   UNL     1      32.171   1.329   5.960  1.00  0.00    -0.393 OA
ATOM     22  H   UNL     1      32.383   1.439   5.026  1.00  0.00     0.210 HD
ENDBRANCH  10  21
TORSDOF 1
