REMARK SMILES O=C(N[C@]12C[C@H]3C[C@H](C[C@H](C3)C1)C2)c1nn(CCCCCF)c2ccccc12
REMARK SMILES IDX 18 1 17 2 16 3 14 4 15 5 28 6 27 7 23 8 26 9 24 10 25 11
REMARK SMILES IDX 2 12 3 13 1 14 4 16 11 17 6 18 10 19 7 20 5 21 9 22 12 23
REMARK SMILES IDX 8 24 13 25 19 26 20 27 21 28 22 29
REMARK H PARENT 3 15
ROOT
ATOM      1  C   UNL     1      30.787   5.007   5.399  1.00  0.00     0.024 C 
ENDROOT
BRANCH   1   2
ATOM      2  C   UNL     1      30.475   4.061   6.570  1.00  0.00     0.145 C 
BRANCH   2   3
ATOM      3  N   UNL     1      29.872   2.836   6.126  1.00  0.00    -0.264 N 
ATOM      4  C   UNL     1      28.235   1.592   5.491  1.00  0.00     0.158 A 
ATOM      5  N   UNL     1      28.543   2.738   6.070  1.00  0.00    -0.166 NA
ATOM      6  C   UNL     1      29.425   0.891   5.142  1.00  0.00     0.033 A 
ATOM      7  C   UNL     1      29.718  -0.328   4.530  1.00  0.00     0.013 A 
ATOM      8  C   UNL     1      30.470   1.749   5.567  1.00  0.00     0.069 A 
ATOM      9  C   UNL     1      31.042  -0.653   4.359  1.00  0.00     0.001 A 
ATOM     10  C   UNL     1      31.809   1.408   5.389  1.00  0.00     0.028 A 
ATOM     11  C   UNL     1      32.070   0.202   4.783  1.00  0.00     0.002 A 
BRANCH   4  12
ATOM     12  C   UNL     1      26.834   1.206   5.217  1.00  0.00     0.272 C 
ATOM     13  N   UNL     1      25.955   2.136   5.642  1.00  0.00    -0.345 N 
ATOM     14  O   UNL     1      26.542   0.169   4.645  1.00  0.00    -0.267 OA
ATOM     15  H   UNL     1      26.349   2.952   6.086  1.00  0.00     0.164 HD
BRANCH  13  16
ATOM     16  C   UNL     1      24.510   2.097   5.456  1.00  0.00     0.041 C 
ATOM     17  C   UNL     1      22.075   0.837   4.425  1.00  0.00     0.007 C 
ATOM     18  C   UNL     1      22.407   0.831   5.916  1.00  0.00    -0.008 C 
ATOM     19  C   UNL     1      22.655   2.096   3.782  1.00  0.00    -0.008 C 
ATOM     20  C   UNL     1      21.806   2.068   6.581  1.00  0.00     0.007 C 
ATOM     21  C   UNL     1      23.924   0.836   6.100  1.00  0.00     0.032 C 
ATOM     22  C   UNL     1      22.056   3.335   4.445  1.00  0.00     0.007 C 
ATOM     23  C   UNL     1      24.172   2.106   3.961  1.00  0.00     0.032 C 
ATOM     24  C   UNL     1      22.390   3.324   5.936  1.00  0.00    -0.008 C 
ATOM     25  C   UNL     1      23.908   3.336   6.119  1.00  0.00     0.032 C 
ENDBRANCH  13  16
ENDBRANCH   4  12
ENDBRANCH   2   3
ENDBRANCH   1   2
BRANCH   1  26
ATOM     26  C   UNL     1      29.631   5.146   4.406  1.00  0.00     0.005 C 
BRANCH  26  27
ATOM     27  C   UNL     1      28.347   5.681   5.035  1.00  0.00     0.034 C 
BRANCH  27  28
ATOM     28  C   UNL     1      27.206   5.656   4.029  1.00  0.00     0.214 C 
ATOM     29  F   UNL     1      26.031   6.042   4.632  1.00  0.00    -0.251 F 
ENDBRANCH  27  28
ENDBRANCH  26  27
ENDBRANCH   1  26
TORSDOF 7
