REMARK SMILES C[C@](O)(CS(=O)(=O)c1ccc(F)cc1)C(=O)Nc1ccc(C#N)c(C(F)(F)F)c1
REMARK SMILES IDX 1 1 2 2 4 3 5 4 6 5 7 6 8 7 9 8 14 9 10 10 13 11 11 12 12 13
REMARK SMILES IDX 15 14 16 15 17 16 18 18 29 19 19 20 24 21 20 22 21 23 22 24
REMARK SMILES IDX 23 25 25 26 26 27 27 28 28 29 3 30
REMARK H PARENT 17 17 3 31
ROOT
ATOM      1  C   UNL     1      24.667  -1.564   4.840  1.00  0.00     0.054 C 
ATOM      2  C   UNL     1      24.973  -0.747   6.105  1.00  0.00     0.154 C 
ENDROOT
BRANCH   2   3
ATOM      3  C   UNL     1      23.770   0.115   6.480  1.00  0.00     0.187 C 
BRANCH   3   4
ATOM      4  S   UNL     1      24.042   1.004   8.055  1.00  0.00     0.181 S 
ATOM      5  O   UNL     1      22.839   1.713   8.372  1.00  0.00    -0.224 OA
ATOM      6  O   UNL     1      24.521   0.025   9.010  1.00  0.00    -0.224 OA
BRANCH   4   7
ATOM      7  C   UNL     1      25.369   2.181   7.782  1.00  0.00     0.067 A 
ATOM      8  C   UNL     1      25.147   3.274   6.966  1.00  0.00     0.023 A 
ATOM      9  C   UNL     1      26.593   1.958   8.383  1.00  0.00     0.023 A 
ATOM     10  C   UNL     1      26.185   4.152   6.715  1.00  0.00     0.040 A 
ATOM     11  C   UNL     1      27.638   2.833   8.146  1.00  0.00     0.040 A 
ATOM     12  C   UNL     1      27.417   3.908   7.301  1.00  0.00     0.123 A 
ATOM     13  F   UNL     1      28.437   4.740   7.038  1.00  0.00    -0.207 F 
ENDBRANCH   4   7
ENDBRANCH   3   4
ENDBRANCH   2   3
BRANCH   2  14
ATOM     14  C   UNL     1      26.144   0.200   5.749  1.00  0.00     0.257 C 
ATOM     15  O   UNL     1      25.982   1.187   5.064  1.00  0.00    -0.271 OA
ATOM     16  N   UNL     1      27.318  -0.232   6.269  1.00  0.00    -0.324 N 
ATOM     17  H   UNL     1      27.220  -1.078   6.830  1.00  0.00     0.170 HD
BRANCH  16  18
ATOM     18  C   UNL     1      28.563   0.375   6.229  1.00  0.00     0.041 A 
ATOM     19  C   UNL     1      29.580  -0.172   7.015  1.00  0.00     0.040 A 
ATOM     20  C   UNL     1      28.823   1.507   5.456  1.00  0.00     0.027 A 
ATOM     21  C   UNL     1      30.830   0.413   7.034  1.00  0.00     0.075 A 
ATOM     22  C   UNL     1      30.071   2.090   5.479  1.00  0.00     0.022 A 
ATOM     23  C   UNL     1      31.091   1.558   6.269  1.00  0.00     0.064 A 
ATOM     24  C   UNL     1      32.364   2.177   6.282  1.00  0.00     0.100 C 
ATOM     25  N   UNL     1      33.384   2.697   6.275  1.00  0.00    -0.192 NA
BRANCH  21  26
ATOM     26  C   UNL     1      31.929  -0.163   7.888  1.00  0.00     0.417 C 
ATOM     27  F   UNL     1      33.006  -0.512   7.171  1.00  0.00    -0.166 F 
ATOM     28  F   UNL     1      31.540  -1.266   8.547  1.00  0.00    -0.166 F 
ATOM     29  F   UNL     1      32.346   0.705   8.824  1.00  0.00    -0.166 F 
ENDBRANCH  21  26
ENDBRANCH  16  18
ENDBRANCH   2  14
BRANCH   2  30
ATOM     30  O   UNL     1      25.344  -1.644   7.124  1.00  0.00    -0.379 OA
ATOM     31  H   UNL     1      25.089  -1.265   7.991  1.00  0.00     0.212 HD
ENDBRANCH   2  30
TORSDOF 7
