REMARK SMILES C[C@]1(O)CC[C@H]2[C@@H]3CCC4=CC(=O)CCC4=C3C=C[C@@]21C
REMARK SMILES IDX 1 1 2 2 4 3 5 4 6 5 20 6 19 7 18 8 17 9 16 10 15 11 14 12
REMARK SMILES IDX 12 13 13 14 11 15 10 16 9 17 8 18 7 19 21 20 3 21
REMARK H PARENT 3 22
ROOT
ATOM      1  C   UNL     1      31.408   3.544   3.587  1.00  0.00     0.043 C 
ATOM      2  C   UNL     1      31.202   3.066   5.028  1.00  0.00     0.071 C 
ATOM      3  C   UNL     1      31.427   1.539   5.150  1.00  0.00     0.036 C 
ATOM      4  C   UNL     1      30.046   0.865   5.248  1.00  0.00     0.008 C 
ATOM      5  C   UNL     1      29.064   1.987   4.920  1.00  0.00     0.009 C 
ATOM      6  C   UNL     1      29.729   3.241   5.506  1.00  0.00     0.018 C 
ATOM      7  C   UNL     1      28.957   4.420   5.014  1.00  0.00    -0.017 C 
ATOM      8  C   UNL     1      27.635   4.327   4.824  1.00  0.00     0.000 C 
ATOM      9  C   UNL     1      26.862   3.124   5.045  1.00  0.00    -0.041 C 
ATOM     10  C   UNL     1      25.502   3.094   4.970  1.00  0.00    -0.041 C 
ATOM     11  C   UNL     1      24.650   4.292   4.634  1.00  0.00     0.044 C 
ATOM     12  C   UNL     1      23.376   4.329   5.471  1.00  0.00     0.085 C 
ATOM     13  C   UNL     1      22.587   3.045   5.324  1.00  0.00     0.156 C 
ATOM     14  O   UNL     1      21.372   3.018   5.328  1.00  0.00    -0.295 OA
ATOM     15  C   UNL     1      23.410   1.853   5.239  1.00  0.00     0.051 C 
ATOM     16  C   UNL     1      24.761   1.866   5.157  1.00  0.00    -0.041 C 
ATOM     17  C   UNL     1      25.506   0.564   5.252  1.00  0.00     0.036 C 
ATOM     18  C   UNL     1      26.916   0.674   4.697  1.00  0.00     0.013 C 
ATOM     19  C   UNL     1      27.618   1.850   5.372  1.00  0.00     0.024 C 
ATOM     20  C   UNL     1      29.703   3.284   7.043  1.00  0.00     0.019 C 
ENDROOT
BRANCH   2  21
ATOM     21  O   UNL     1      32.143   3.705   5.867  1.00  0.00    -0.389 OA
ATOM     22  H   UNL     1      32.086   4.656   5.726  1.00  0.00     0.211 HD
ENDBRANCH   2  21
TORSDOF 1
