REMARK SMILES COC(=O)[C@@H](NC(=O)c1nn(CC2CCCCC2)c2ccccc12)C(C)(C)C
REMARK SMILES IDX 6 1 7 2 8 3 5 5 3 6 4 7 2 8 1 9 25 10 26 11 27 12 28 13 9 14
REMARK SMILES IDX 10 15 24 16 11 17 23 18 19 19 22 20 20 21 21 22 12 23 13 24
REMARK SMILES IDX 14 25 18 26 15 27 17 28 16 29
REMARK H PARENT 6 4
ROOT
ATOM      1  N   UNL     1      24.805   2.907   3.864  1.00  0.00    -0.337 N 
ATOM      2  C   UNL     1      25.409   3.088   5.132  1.00  0.00     0.273 C 
ATOM      3  O   UNL     1      24.739   3.637   6.071  1.00  0.00    -0.267 OA
ATOM      4  H   UNL     1      25.325   2.457   3.061  1.00  0.00     0.164 HD
ENDROOT
BRANCH   1   5
ATOM      5  C   UNL     1      23.441   3.340   3.634  1.00  0.00     0.198 C 
BRANCH   5   6
ATOM      6  C   UNL     1      22.511   2.231   3.336  1.00  0.00     0.328 C 
ATOM      7  O   UNL     1      21.276   2.437   3.109  1.00  0.00    -0.250 OA
BRANCH   6   8
ATOM      8  O   UNL     1      23.011   0.918   3.304  1.00  0.00    -0.467 OA
ATOM      9  C   UNL     1      22.182  -0.199   3.025  1.00  0.00     0.282 C 
ENDBRANCH   6   8
ENDBRANCH   5   6
BRANCH   5  10
ATOM     10  C   UNL     1      23.378   4.467   2.626  1.00  0.00    -0.007 C 
ATOM     11  C   UNL     1      24.364   5.585   2.988  1.00  0.00     0.013 C 
ATOM     12  C   UNL     1      22.018   5.131   2.642  1.00  0.00     0.013 C 
ATOM     13  C   UNL     1      23.676   4.040   1.226  1.00  0.00     0.013 C 
ENDBRANCH   5  10
ENDBRANCH   1   5
BRANCH   2  14
ATOM     14  C   UNL     1      26.782   2.651   5.363  1.00  0.00     0.158 A 
ATOM     15  N   UNL     1      27.646   2.062   4.524  1.00  0.00    -0.166 NA
ATOM     16  C   UNL     1      27.470   2.778   6.563  1.00  0.00     0.033 A 
ATOM     17  N   UNL     1      28.798   1.831   5.141  1.00  0.00    -0.264 N 
ATOM     18  C   UNL     1      27.139   3.296   7.802  1.00  0.00     0.013 A 
ATOM     19  C   UNL     1      28.748   2.256   6.416  1.00  0.00     0.069 A 
ATOM     20  C   UNL     1      28.062   3.289   8.853  1.00  0.00     0.001 A 
ATOM     21  C   UNL     1      29.669   2.241   7.442  1.00  0.00     0.028 A 
ATOM     22  C   UNL     1      29.328   2.761   8.674  1.00  0.00     0.002 A 
BRANCH  17  23
ATOM     23  C   UNL     1      29.993   1.179   4.493  1.00  0.00     0.148 C 
BRANCH  23  24
ATOM     24  C   UNL     1      30.846   2.137   3.893  1.00  0.00     0.011 C 
ATOM     25  C   UNL     1      30.439   3.003   2.838  1.00  0.00     0.005 C 
ATOM     26  C   UNL     1      32.140   1.712   3.109  1.00  0.00     0.005 C 
ATOM     27  C   UNL     1      30.135   1.707   1.900  1.00  0.00     0.000 C 
ATOM     28  C   UNL     1      32.194   1.295   1.523  1.00  0.00     0.000 C 
ATOM     29  C   UNL     1      31.083   0.449   1.700  1.00  0.00     0.000 C 
ENDBRANCH  23  24
ENDBRANCH  17  23
ENDBRANCH   2  14
TORSDOF 7
