REMARK SMILES CCCCCc1cc(O)c2c(c1)OC(C)(C)c1ccc(C)cc1-2
REMARK SMILES IDX 4 1 3 2 2 3 1 4 5 5 6 6 7 7 12 8 8 9 11 10 10 11 13 12 23 13
REMARK SMILES IDX 14 14 22 15 17 16 20 17 18 18 19 19 15 20 16 21 21 22 9 23
REMARK H PARENT 9 24
ROOT
ATOM      1  C   UNL     1      30.678   1.079   3.944  1.00  0.00     0.005 C 
ENDROOT
BRANCH   1   2
ATOM      2  C   UNL     1      32.144   1.107   4.370  1.00  0.00     0.000 C 
BRANCH   2   3
ATOM      3  C   UNL     1      32.971   1.046   3.106  1.00  0.00    -0.003 C 
ATOM      4  C   UNL     1      32.642   2.232   2.242  1.00  0.00     0.004 C 
ENDBRANCH   2   3
ENDBRANCH   1   2
BRANCH   1   5
ATOM      5  C   UNL     1      29.838   1.140   5.199  1.00  0.00     0.036 C 
BRANCH   5   6
ATOM      6  C   UNL     1      28.397   1.115   4.842  1.00  0.00    -0.041 A 
ATOM      7  C   UNL     1      27.763  -0.096   4.742  1.00  0.00     0.050 A 
ATOM      8  C   UNL     1      27.685   2.270   4.609  1.00  0.00     0.051 A 
ATOM      9  C   UNL     1      26.404  -0.159   4.407  1.00  0.00     0.127 A 
ATOM     10  C   UNL     1      26.336   2.240   4.274  1.00  0.00     0.132 A 
ATOM     11  C   UNL     1      25.722   0.993   4.182  1.00  0.00     0.066 A 
ATOM     12  O   UNL     1      25.715   3.430   4.063  1.00  0.00    -0.482 OA
ATOM     13  C   UNL     1      24.325   0.982   3.834  1.00  0.00    -0.003 A 
ATOM     14  C   UNL     1      24.360   3.506   3.722  1.00  0.00     0.129 C 
ATOM     15  C   UNL     1      23.613  -0.188   3.713  1.00  0.00     0.012 A 
ATOM     16  C   UNL     1      23.700   2.182   3.621  1.00  0.00     0.003 A 
ATOM     17  C   UNL     1      22.249  -0.194   3.374  1.00  0.00    -0.050 A 
ATOM     18  C   UNL     1      22.346   2.209   3.282  1.00  0.00     0.009 A 
ATOM     19  C   UNL     1      21.659   1.028   3.168  1.00  0.00     0.004 A 
ATOM     20  C   UNL     1      24.141   4.184   2.383  1.00  0.00     0.062 C 
ATOM     21  C   UNL     1      23.703   4.329   4.841  1.00  0.00     0.062 C 
ATOM     22  C   UNL     1      21.489  -1.465   3.246  1.00  0.00     0.044 C 
BRANCH   9  23
ATOM     23  O   UNL     1      25.882  -1.435   4.338  1.00  0.00    -0.507 OA
ATOM     24  H   UNL     1      26.112  -2.187   5.006  1.00  0.00     0.293 HD
ENDBRANCH   9  23
ENDBRANCH   5   6
ENDBRANCH   1   5
TORSDOF 5
