REMARK SMILES CCCCCc1cc(O)c2c(c1)OC(C)(C)c1ccc(C)cc1-2
REMARK SMILES IDX 4 1 3 2 2 3 1 4 5 5 6 6 7 7 12 8 8 9 11 10 10 11 13 12 23 13
REMARK SMILES IDX 14 14 22 15 17 16 20 17 18 18 19 19 15 20 16 21 21 22 9 23
REMARK H PARENT 9 24
ROOT
ATOM      1  C   UNL     1      30.405   0.996   3.355  1.00  0.00     0.005 C 
ENDROOT
BRANCH   1   2
ATOM      2  C   UNL     1      31.904   0.982   3.432  1.00  0.00     0.000 C 
BRANCH   2   3
ATOM      3  C   UNL     1      32.442   2.292   3.997  1.00  0.00    -0.003 C 
ATOM      4  C   UNL     1      33.952   2.184   4.033  1.00  0.00     0.004 C 
ENDBRANCH   2   3
ENDBRANCH   1   2
BRANCH   1   5
ATOM      5  C   UNL     1      29.789   1.192   4.726  1.00  0.00     0.036 C 
BRANCH   5   6
ATOM      6  C   UNL     1      28.304   1.191   4.549  1.00  0.00    -0.041 A 
ATOM      7  C   UNL     1      27.672  -0.027   4.642  1.00  0.00     0.050 A 
ATOM      8  C   UNL     1      27.611   2.344   4.308  1.00  0.00     0.051 A 
ATOM      9  C   UNL     1      26.281  -0.093   4.485  1.00  0.00     0.127 A 
ATOM     10  C   UNL     1      26.242   2.244   4.158  1.00  0.00     0.132 A 
ATOM     11  C   UNL     1      25.562   1.052   4.242  1.00  0.00     0.066 A 
ATOM     12  O   UNL     1      25.549   3.408   3.915  1.00  0.00    -0.482 OA
ATOM     13  C   UNL     1      24.136   1.036   4.074  1.00  0.00    -0.003 A 
ATOM     14  C   UNL     1      24.174   3.537   3.734  1.00  0.00     0.129 C 
ATOM     15  C   UNL     1      23.419  -0.132   4.150  1.00  0.00     0.012 A 
ATOM     16  C   UNL     1      23.478   2.204   3.835  1.00  0.00     0.003 A 
ATOM     17  C   UNL     1      22.025  -0.138   3.985  1.00  0.00    -0.050 A 
ATOM     18  C   UNL     1      22.096   2.269   3.661  1.00  0.00     0.009 A 
ATOM     19  C   UNL     1      21.422   1.072   3.746  1.00  0.00     0.004 A 
ATOM     20  C   UNL     1      23.955   4.173   2.376  1.00  0.00     0.062 C 
ATOM     21  C   UNL     1      23.626   4.448   4.815  1.00  0.00     0.062 C 
ATOM     22  C   UNL     1      21.228  -1.376   4.061  1.00  0.00     0.044 C 
BRANCH   9  23
ATOM     23  O   UNL     1      25.739  -1.356   4.595  1.00  0.00    -0.507 OA
ATOM     24  H   UNL     1      26.082  -1.980   5.320  1.00  0.00     0.293 HD
ENDBRANCH   9  23
ENDBRANCH   5   6
ENDBRANCH   1   5
TORSDOF 5
