REMARK SMILES CCCCCc1cc(O)c2c(c1)OC(C)(C)c1ccc(C)cc1-2
REMARK SMILES IDX 4 1 3 2 2 3 1 4 5 5 6 6 7 7 12 8 8 9 11 10 10 11 13 12 23 13
REMARK SMILES IDX 14 14 22 15 17 16 20 17 18 18 19 19 15 20 16 21 21 22 9 23
REMARK H PARENT 9 24
ROOT
ATOM      1  C   UNL     1      31.003   0.528   3.595  1.00  0.00     0.005 C 
ENDROOT
BRANCH   1   2
ATOM      2  C   UNL     1      32.479   0.491   3.888  1.00  0.00     0.000 C 
BRANCH   2   3
ATOM      3  C   UNL     1      33.009   1.757   4.459  1.00  0.00    -0.003 C 
ATOM      4  C   UNL     1      32.738   2.864   3.445  1.00  0.00     0.004 C 
ENDBRANCH   2   3
ENDBRANCH   1   2
BRANCH   1   5
ATOM      5  C   UNL     1      30.241   0.785   4.830  1.00  0.00     0.036 C 
BRANCH   5   6
ATOM      6  C   UNL     1      28.772   0.830   4.648  1.00  0.00    -0.041 A 
ATOM      7  C   UNL     1      28.075  -0.345   4.780  1.00  0.00     0.050 A 
ATOM      8  C   UNL     1      28.157   2.026   4.358  1.00  0.00     0.051 A 
ATOM      9  C   UNL     1      26.684  -0.339   4.615  1.00  0.00     0.127 A 
ATOM     10  C   UNL     1      26.772   1.990   4.201  1.00  0.00     0.132 A 
ATOM     11  C   UNL     1      26.038   0.837   4.325  1.00  0.00     0.066 A 
ATOM     12  O   UNL     1      26.152   3.174   3.912  1.00  0.00    -0.482 OA
ATOM     13  C   UNL     1      24.619   0.892   4.147  1.00  0.00    -0.003 A 
ATOM     14  C   UNL     1      24.790   3.374   3.715  1.00  0.00     0.129 C 
ATOM     15  C   UNL     1      23.826  -0.228   4.258  1.00  0.00     0.012 A 
ATOM     16  C   UNL     1      24.019   2.094   3.858  1.00  0.00     0.003 A 
ATOM     17  C   UNL     1      22.433  -0.162   4.082  1.00  0.00    -0.050 A 
ATOM     18  C   UNL     1      22.644   2.223   3.672  1.00  0.00     0.009 A 
ATOM     19  C   UNL     1      21.902   1.071   3.794  1.00  0.00     0.004 A 
ATOM     20  C   UNL     1      24.195   4.306   4.777  1.00  0.00     0.062 C 
ATOM     21  C   UNL     1      24.561   4.035   2.386  1.00  0.00     0.062 C 
ATOM     22  C   UNL     1      21.580  -1.374   4.202  1.00  0.00     0.044 C 
BRANCH   9  23
ATOM     23  O   UNL     1      26.069  -1.563   4.766  1.00  0.00    -0.507 OA
ATOM     24  H   UNL     1      26.299  -2.395   4.277  1.00  0.00     0.293 HD
ENDBRANCH   9  23
ENDBRANCH   5   6
ENDBRANCH   1   5
TORSDOF 5
