REMARK SMILES CCCCCc1cc(O)c2c(c1)OC(C)(C)c1ccc(C)cc1-2
REMARK SMILES IDX 4 1 3 2 2 3 1 4 5 5 6 6 7 7 12 8 8 9 11 10 10 11 13 12 23 13
REMARK SMILES IDX 14 14 22 15 17 16 20 17 18 18 19 19 15 20 16 21 21 22 9 23
REMARK H PARENT 9 24
ROOT
ATOM      1  C   UNL     1      30.944   0.605   3.666  1.00  0.00     0.005 C 
ENDROOT
BRANCH   1   2
ATOM      2  C   UNL     1      32.439   0.556   3.843  1.00  0.00     0.000 C 
BRANCH   2   3
ATOM      3  C   UNL     1      33.032   1.820   4.370  1.00  0.00    -0.003 C 
ATOM      4  C   UNL     1      32.774   2.993   3.466  1.00  0.00     0.004 C 
ENDBRANCH   2   3
ENDBRANCH   1   2
BRANCH   1   5
ATOM      5  C   UNL     1      30.175   0.874   4.917  1.00  0.00     0.036 C 
BRANCH   5   6
ATOM      6  C   UNL     1      28.714   0.914   4.708  1.00  0.00    -0.041 A 
ATOM      7  C   UNL     1      28.007  -0.255   4.831  1.00  0.00     0.050 A 
ATOM      8  C   UNL     1      28.105   2.106   4.398  1.00  0.00     0.051 A 
ATOM      9  C   UNL     1      26.626  -0.265   4.642  1.00  0.00     0.127 A 
ATOM     10  C   UNL     1      26.724   2.059   4.217  1.00  0.00     0.132 A 
ATOM     11  C   UNL     1      25.991   0.910   4.332  1.00  0.00     0.066 A 
ATOM     12  O   UNL     1      26.111   3.258   3.905  1.00  0.00    -0.482 OA
ATOM     13  C   UNL     1      24.570   0.973   4.124  1.00  0.00    -0.003 A 
ATOM     14  C   UNL     1      24.747   3.456   3.680  1.00  0.00     0.129 C 
ATOM     15  C   UNL     1      23.775  -0.146   4.226  1.00  0.00     0.012 A 
ATOM     16  C   UNL     1      24.010   2.186   3.818  1.00  0.00     0.003 A 
ATOM     17  C   UNL     1      22.386  -0.084   4.022  1.00  0.00    -0.050 A 
ATOM     18  C   UNL     1      22.636   2.243   3.617  1.00  0.00     0.009 A 
ATOM     19  C   UNL     1      21.841   1.125   3.719  1.00  0.00     0.004 A 
ATOM     20  C   UNL     1      24.541   4.095   2.327  1.00  0.00     0.062 C 
ATOM     21  C   UNL     1      24.240   4.372   4.773  1.00  0.00     0.062 C 
ATOM     22  C   UNL     1      21.528  -1.287   4.131  1.00  0.00     0.044 C 
BRANCH   9  23
ATOM     23  O   UNL     1      26.007  -1.485   4.787  1.00  0.00    -0.507 OA
ATOM     24  H   UNL     1      26.339  -2.370   4.486  1.00  0.00     0.293 HD
ENDBRANCH   9  23
ENDBRANCH   5   6
ENDBRANCH   1   5
TORSDOF 5
