REMARK SMILES CCCCCc1cc(O)c2c(c1)OC(C)(C)c1ccc(C)cc1-2
REMARK SMILES IDX 4 1 3 2 2 3 1 4 5 5 6 6 7 7 12 8 8 9 11 10 10 11 13 12 23 13
REMARK SMILES IDX 14 14 22 15 17 16 20 17 18 18 19 19 15 20 16 21 21 22 9 23
REMARK H PARENT 9 24
ROOT
ATOM      1  C   UNL     1      30.462   1.025   4.756  1.00  0.00     0.005 C 
ENDROOT
BRANCH   1   2
ATOM      2  C   UNL     1      31.964   1.030   4.563  1.00  0.00     0.000 C 
BRANCH   2   3
ATOM      3  C   UNL     1      32.460   2.174   3.736  1.00  0.00    -0.003 C 
ATOM      4  C   UNL     1      33.977   2.016   3.650  1.00  0.00     0.004 C 
ENDBRANCH   2   3
ENDBRANCH   1   2
BRANCH   1   5
ATOM      5  C   UNL     1      29.716   0.937   3.470  1.00  0.00     0.036 C 
BRANCH   5   6
ATOM      6  C   UNL     1      28.265   0.926   3.558  1.00  0.00    -0.041 A 
ATOM      7  C   UNL     1      27.601  -0.270   3.672  1.00  0.00     0.050 A 
ATOM      8  C   UNL     1      27.576   2.119   3.526  1.00  0.00     0.051 A 
ATOM      9  C   UNL     1      26.205  -0.287   3.757  1.00  0.00     0.127 A 
ATOM     10  C   UNL     1      26.178   2.097   3.612  1.00  0.00     0.132 A 
ATOM     11  C   UNL     1      25.514   0.897   3.726  1.00  0.00     0.066 A 
ATOM     12  O   UNL     1      25.562   3.332   3.573  1.00  0.00    -0.482 OA
ATOM     13  C   UNL     1      24.073   0.932   3.810  1.00  0.00    -0.003 A 
ATOM     14  C   UNL     1      24.167   3.450   3.649  1.00  0.00     0.129 C 
ATOM     15  C   UNL     1      23.326  -0.217   3.926  1.00  0.00     0.012 A 
ATOM     16  C   UNL     1      23.455   2.153   3.772  1.00  0.00     0.003 A 
ATOM     17  C   UNL     1      21.925  -0.168   4.008  1.00  0.00    -0.050 A 
ATOM     18  C   UNL     1      22.068   2.230   3.851  1.00  0.00     0.009 A 
ATOM     19  C   UNL     1      21.343   1.067   3.966  1.00  0.00     0.004 A 
ATOM     20  C   UNL     1      23.797   4.246   4.901  1.00  0.00     0.062 C 
ATOM     21  C   UNL     1      23.649   4.259   2.476  1.00  0.00     0.062 C 
ATOM     22  C   UNL     1      21.113  -1.407   4.133  1.00  0.00     0.044 C 
BRANCH   9  23
ATOM     23  O   UNL     1      25.635  -1.536   3.868  1.00  0.00    -0.507 OA
ATOM     24  H   UNL     1      25.942  -2.132   4.642  1.00  0.00     0.293 HD
ENDBRANCH   9  23
ENDBRANCH   5   6
ENDBRANCH   1   5
TORSDOF 5
