REMARK SMILES CCCCCCC(C)(C)c1cc(C)c2c(c1)OC(C)(C)[C@@H]1CC=C(CO)C[C@@H]21
REMARK SMILES IDX 6 1 5 2 4 3 3 4 2 5 1 6 7 7 8 8 9 9 10 10 11 11 16 12 12 13
REMARK SMILES IDX 15 14 14 15 17 16 28 17 18 18 27 19 21 20 24 21 22 22 23 23
REMARK SMILES IDX 13 24 19 25 20 26 25 27 26 28
REMARK H PARENT 26 29
ROOT
ATOM      1  C   UNL     1      29.531   2.863   5.482  1.00  0.00     0.011 C 
ENDROOT
BRANCH   1   2
ATOM      2  C   UNL     1      30.982   2.669   5.377  1.00  0.00     0.001 C 
BRANCH   2   3
ATOM      3  C   UNL     1      31.840   3.810   5.128  1.00  0.00     0.000 C 
BRANCH   3   4
ATOM      4  C   UNL     1      33.349   3.604   5.219  1.00  0.00    -0.000 C 
BRANCH   4   5
ATOM      5  C   UNL     1      33.979   2.528   4.418  1.00  0.00    -0.003 C 
ATOM      6  C   UNL     1      33.622   1.132   4.817  1.00  0.00     0.004 C 
ENDBRANCH   4   5
ENDBRANCH   3   4
ENDBRANCH   2   3
ENDBRANCH   1   2
BRANCH   1   7
ATOM      7  C   UNL     1      28.746   3.490   4.436  1.00  0.00    -0.010 C 
ATOM      8  C   UNL     1      28.799   2.952   3.034  1.00  0.00     0.016 C 
ATOM      9  C   UNL     1      28.798   4.985   4.473  1.00  0.00     0.016 C 
BRANCH   7  10
ATOM     10  C   UNL     1      27.236   3.186   4.796  1.00  0.00    -0.038 A 
ATOM     11  C   UNL     1      26.955   1.850   4.971  1.00  0.00     0.008 A 
ATOM     12  C   UNL     1      26.311   4.191   4.909  1.00  0.00     0.051 A 
ATOM     13  C   UNL     1      25.626   1.488   5.279  1.00  0.00    -0.044 A 
ATOM     14  C   UNL     1      24.999   3.831   5.231  1.00  0.00     0.124 A 
ATOM     15  C   UNL     1      24.725   2.499   5.375  1.00  0.00     0.001 A 
ATOM     16  O   UNL     1      24.080   4.901   5.441  1.00  0.00    -0.487 OA
ATOM     17  C   UNL     1      23.262   2.113   5.480  1.00  0.00     0.035 C 
ATOM     18  C   UNL     1      22.762   4.531   5.968  1.00  0.00     0.107 C 
ATOM     19  C   UNL     1      22.957   1.238   4.266  1.00  0.00     0.042 C 
ATOM     20  C   UNL     1      22.396   3.333   5.206  1.00  0.00     0.044 C 
ATOM     21  C   UNL     1      21.525   0.851   4.247  1.00  0.00    -0.048 C 
ATOM     22  C   UNL     1      20.979   2.837   5.652  1.00  0.00     0.035 C 
ATOM     23  C   UNL     1      20.672   1.625   4.856  1.00  0.00    -0.025 C 
ATOM     24  C   UNL     1      25.415   0.071   5.590  1.00  0.00     0.045 C 
ATOM     25  C   UNL     1      22.950   4.250   7.451  1.00  0.00     0.056 C 
ATOM     26  C   UNL     1      21.841   5.690   5.710  1.00  0.00     0.056 C 
BRANCH  21  27
ATOM     27  C   UNL     1      21.034  -0.359   3.472  1.00  0.00     0.187 C 
BRANCH  27  28
ATOM     28  O   UNL     1      19.676  -0.493   3.523  1.00  0.00    -0.392 OA
ATOM     29  H   UNL     1      19.266  -0.093   2.707  1.00  0.00     0.211 HD
ENDBRANCH  27  28
ENDBRANCH  21  27
ENDBRANCH   7  10
ENDBRANCH   1   7
TORSDOF 8
