REMARK SMILES O=C(NC12CC3CC(CC(C3)C1)C2)c1nn(CCCCCF)c2ccccc12
REMARK SMILES IDX 18 1 17 2 16 3 14 4 15 5 28 6 27 7 23 8 26 9 24 10 25 11
REMARK SMILES IDX 2 12 1 13 3 14 4 16 13 17 12 18 5 19 8 20 10 21 6 22 7 23
REMARK SMILES IDX 9 24 11 25 19 26 20 27 21 28 22 29
REMARK H PARENT 3 15
ROOT
ATOM      1  C   UNL     1      31.528   0.242   4.919  1.00  0.00     0.024 C 
ENDROOT
BRANCH   1   2
ATOM      2  C   UNL     1      31.090   0.689   3.588  1.00  0.00     0.145 C 
BRANCH   2   3
ATOM      3  N   UNL     1      29.748   1.344   3.697  1.00  0.00    -0.264 N 
ATOM      4  C   UNL     1      27.571   1.568   3.732  1.00  0.00     0.158 A 
ATOM      5  N   UNL     1      28.580   0.714   3.589  1.00  0.00    -0.166 NA
ATOM      6  C   UNL     1      28.173   2.810   3.944  1.00  0.00     0.033 A 
ATOM      7  C   UNL     1      27.679   4.081   4.159  1.00  0.00     0.013 A 
ATOM      8  C   UNL     1      29.552   2.658   3.920  1.00  0.00     0.069 A 
ATOM      9  C   UNL     1      28.512   5.176   4.347  1.00  0.00     0.001 A 
ATOM     10  C   UNL     1      30.417   3.715   4.101  1.00  0.00     0.028 A 
ATOM     11  C   UNL     1      29.889   4.970   4.314  1.00  0.00     0.002 A 
BRANCH   4  12
ATOM     12  C   UNL     1      26.129   1.334   3.690  1.00  0.00     0.272 C 
ATOM     13  O   UNL     1      25.321   2.306   3.854  1.00  0.00    -0.267 OA
ATOM     14  N   UNL     1      25.622   0.043   3.470  1.00  0.00    -0.345 N 
ATOM     15  H   UNL     1      26.339  -0.731   3.339  1.00  0.00     0.164 HD
BRANCH  14  16
ATOM     16  C   UNL     1      24.221  -0.299   3.409  1.00  0.00     0.041 C 
ATOM     17  C   UNL     1      24.046  -1.788   3.156  1.00  0.00     0.032 C 
ATOM     18  C   UNL     1      23.649  -0.014   4.783  1.00  0.00     0.032 C 
ATOM     19  C   UNL     1      23.446   0.502   2.392  1.00  0.00     0.032 C 
ATOM     20  C   UNL     1      22.603  -2.161   3.237  1.00  0.00    -0.008 C 
ATOM     21  C   UNL     1      22.192  -0.401   4.899  1.00  0.00    -0.008 C 
ATOM     22  C   UNL     1      21.994   0.066   2.516  1.00  0.00    -0.008 C 
ATOM     23  C   UNL     1      21.878  -1.381   2.162  1.00  0.00     0.007 C 
ATOM     24  C   UNL     1      22.027  -1.867   4.600  1.00  0.00     0.007 C 
ATOM     25  C   UNL     1      21.435   0.401   3.878  1.00  0.00     0.007 C 
ENDBRANCH  14  16
ENDBRANCH   4  12
ENDBRANCH   2   3
ENDBRANCH   1   2
BRANCH   1  26
ATOM     26  C   UNL     1      32.869  -0.384   4.947  1.00  0.00     0.005 C 
BRANCH  26  27
ATOM     27  C   UNL     1      33.196  -1.632   4.272  1.00  0.00     0.034 C 
BRANCH  27  28
ATOM     28  C   UNL     1      33.073  -1.797   2.815  1.00  0.00     0.214 C 
ATOM     29  F   UNL     1      33.566  -3.109   2.531  1.00  0.00    -0.251 F 
ENDBRANCH  27  28
ENDBRANCH  26  27
ENDBRANCH   1  26
TORSDOF 7
