REMARK SMILES O=C(NC12CC3CC(CC(C3)C1)C2)c1nn(CCCCCF)c2ccccc12
REMARK SMILES IDX 18 1 17 2 16 3 14 4 15 5 28 6 27 7 23 8 26 9 24 10 25 11
REMARK SMILES IDX 2 12 1 13 3 14 4 16 13 17 12 18 5 19 8 20 10 21 6 22 7 23
REMARK SMILES IDX 9 24 11 25 19 26 20 27 21 28 22 29
REMARK H PARENT 3 15
ROOT
ATOM      1  C   UNL     1      30.914  -0.159   3.583  1.00  0.00     0.024 C 
ENDROOT
BRANCH   1   2
ATOM      2  C   UNL     1      30.301   0.126   4.930  1.00  0.00     0.145 C 
BRANCH   2   3
ATOM      3  N   UNL     1      29.006   0.727   4.674  1.00  0.00    -0.264 N 
ATOM      4  C   UNL     1      26.838   0.928   4.306  1.00  0.00     0.158 A 
ATOM      5  N   UNL     1      27.879   0.066   4.541  1.00  0.00    -0.166 NA
ATOM      6  C   UNL     1      27.425   2.159   4.308  1.00  0.00     0.033 A 
ATOM      7  C   UNL     1      26.936   3.407   4.124  1.00  0.00     0.013 A 
ATOM      8  C   UNL     1      28.801   2.047   4.540  1.00  0.00     0.069 A 
ATOM      9  C   UNL     1      27.757   4.506   4.168  1.00  0.00     0.001 A 
ATOM     10  C   UNL     1      29.627   3.148   4.585  1.00  0.00     0.028 A 
ATOM     11  C   UNL     1      29.116   4.416   4.397  1.00  0.00     0.002 A 
BRANCH   4  12
ATOM     12  C   UNL     1      25.503   0.441   4.113  1.00  0.00     0.272 C 
ATOM     13  O   UNL     1      25.397  -0.835   3.962  1.00  0.00    -0.267 OA
ATOM     14  N   UNL     1      24.295   1.143   4.065  1.00  0.00    -0.345 N 
ATOM     15  H   UNL     1      24.293   2.159   4.194  1.00  0.00     0.164 HD
BRANCH  14  16
ATOM     16  C   UNL     1      23.002   0.503   3.858  1.00  0.00     0.041 C 
ATOM     17  C   UNL     1      22.741  -0.449   4.971  1.00  0.00     0.032 C 
ATOM     18  C   UNL     1      21.919   1.553   3.870  1.00  0.00     0.032 C 
ATOM     19  C   UNL     1      22.956  -0.147   2.495  1.00  0.00     0.032 C 
ATOM     20  C   UNL     1      21.391  -1.116   4.776  1.00  0.00    -0.008 C 
ATOM     21  C   UNL     1      20.592   0.906   3.630  1.00  0.00    -0.008 C 
ATOM     22  C   UNL     1      21.654  -0.883   2.340  1.00  0.00    -0.008 C 
ATOM     23  C   UNL     1      21.479  -1.859   3.459  1.00  0.00     0.007 C 
ATOM     24  C   UNL     1      20.336  -0.057   4.794  1.00  0.00     0.007 C 
ATOM     25  C   UNL     1      20.524   0.124   2.360  1.00  0.00     0.007 C 
ENDBRANCH  14  16
ENDBRANCH   4  12
ENDBRANCH   2   3
ENDBRANCH   1   2
BRANCH   1  26
ATOM     26  C   UNL     1      32.265  -0.786   3.648  1.00  0.00     0.005 C 
BRANCH  26  27
ATOM     27  C   UNL     1      33.285   0.062   4.365  1.00  0.00     0.034 C 
BRANCH  27  28
ATOM     28  C   UNL     1      34.598  -0.688   4.357  1.00  0.00     0.214 C 
ATOM     29  F   UNL     1      35.078  -0.961   3.109  1.00  0.00    -0.251 F 
ENDBRANCH  27  28
ENDBRANCH  26  27
ENDBRANCH   1  26
TORSDOF 7
