REMARK SMILES O=C(NC12CC3CC(CC(C3)C1)C2)c1nn(CCCCCF)c2ccccc12
REMARK SMILES IDX 18 1 17 2 16 3 14 4 15 5 28 6 27 7 23 8 26 9 24 10 25 11
REMARK SMILES IDX 2 12 1 13 3 14 4 16 13 17 12 18 5 19 8 20 10 21 6 22 7 23
REMARK SMILES IDX 9 24 11 25 19 26 20 27 21 28 22 29
REMARK H PARENT 3 15
ROOT
ATOM      1  C   UNL     1      32.516   1.134   4.250  1.00  0.00     0.024 C 
ENDROOT
BRANCH   1   2
ATOM      2  C   UNL     1      31.793   1.417   2.981  1.00  0.00     0.145 C 
BRANCH   2   3
ATOM      3  N   UNL     1      30.395   1.740   3.158  1.00  0.00    -0.264 N 
ATOM      4  C   UNL     1      28.209   1.522   3.356  1.00  0.00     0.158 A 
ATOM      5  N   UNL     1      29.394   0.875   3.165  1.00  0.00    -0.166 NA
ATOM      6  C   UNL     1      28.551   2.831   3.466  1.00  0.00     0.033 A 
ATOM      7  C   UNL     1      27.827   3.963   3.672  1.00  0.00     0.013 A 
ATOM      8  C   UNL     1      29.937   2.989   3.342  1.00  0.00     0.069 A 
ATOM      9  C   UNL     1      28.438   5.190   3.752  1.00  0.00     0.001 A 
ATOM     10  C   UNL     1      30.549   4.216   3.421  1.00  0.00     0.028 A 
ATOM     11  C   UNL     1      29.802   5.362   3.631  1.00  0.00     0.002 A 
BRANCH   4  12
ATOM     12  C   UNL     1      26.967   0.793   3.415  1.00  0.00     0.272 C 
ATOM     13  O   UNL     1      27.093  -0.486   3.493  1.00  0.00    -0.267 OA
ATOM     14  N   UNL     1      25.661   1.267   3.397  1.00  0.00    -0.345 N 
ATOM     15  H   UNL     1      25.476   2.273   3.316  1.00  0.00     0.164 HD
BRANCH  14  16
ATOM     16  C   UNL     1      24.512   0.384   3.469  1.00  0.00     0.041 C 
ATOM     17  C   UNL     1      24.438  -0.458   4.687  1.00  0.00     0.032 C 
ATOM     18  C   UNL     1      24.481  -0.440   2.204  1.00  0.00     0.032 C 
ATOM     19  C   UNL     1      23.230   1.234   3.422  1.00  0.00     0.032 C 
ATOM     20  C   UNL     1      23.184  -1.284   4.636  1.00  0.00    -0.008 C 
ATOM     21  C   UNL     1      23.320  -1.410   2.192  1.00  0.00    -0.008 C 
ATOM     22  C   UNL     1      22.031   0.357   3.277  1.00  0.00    -0.008 C 
ATOM     23  C   UNL     1      21.918  -0.508   4.530  1.00  0.00     0.007 C 
ATOM     24  C   UNL     1      23.296  -2.214   3.449  1.00  0.00     0.007 C 
ATOM     25  C   UNL     1      22.060  -0.574   2.107  1.00  0.00     0.007 C 
ENDBRANCH  14  16
ENDBRANCH   4  12
ENDBRANCH   2   3
ENDBRANCH   1   2
BRANCH   1  26
ATOM     26  C   UNL     1      31.971  -0.021   5.040  1.00  0.00     0.005 C 
BRANCH  26  27
ATOM     27  C   UNL     1      32.005  -1.321   4.283  1.00  0.00     0.034 C 
BRANCH  27  28
ATOM     28  C   UNL     1      31.432  -2.404   5.181  1.00  0.00     0.214 C 
ATOM     29  F   UNL     1      30.127  -2.106   5.534  1.00  0.00    -0.251 F 
ENDBRANCH  27  28
ENDBRANCH  26  27
ENDBRANCH   1  26
TORSDOF 7
