REMARK SMILES O=C(NC12CC3CC(CC(C3)C1)C2)c1nn(CCCCCF)c2ccccc12
REMARK SMILES IDX 18 1 17 2 16 3 14 4 15 5 28 6 27 7 23 8 26 9 24 10 25 11
REMARK SMILES IDX 2 12 1 13 3 14 4 16 13 17 12 18 5 19 8 20 10 21 6 22 7 23
REMARK SMILES IDX 9 24 11 25 19 26 20 27 21 28 22 29
REMARK H PARENT 3 15
ROOT
ATOM      1  C   UNL     1      31.006   0.269   4.799  1.00  0.00     0.024 C 
ENDROOT
BRANCH   1   2
ATOM      2  C   UNL     1      30.568   0.126   3.393  1.00  0.00     0.145 C 
BRANCH   2   3
ATOM      3  N   UNL     1      29.211   0.729   3.211  1.00  0.00    -0.264 N 
ATOM      4  C   UNL     1      27.033   0.894   3.126  1.00  0.00     0.158 A 
ATOM      5  N   UNL     1      28.081   0.070   3.361  1.00  0.00    -0.166 NA
ATOM      6  C   UNL     1      27.590   2.104   2.824  1.00  0.00     0.033 A 
ATOM      7  C   UNL     1      27.079   3.323   2.510  1.00  0.00     0.013 A 
ATOM      8  C   UNL     1      28.985   2.008   2.874  1.00  0.00     0.069 A 
ATOM      9  C   UNL     1      27.891   4.401   2.254  1.00  0.00     0.001 A 
ATOM     10  C   UNL     1      29.803   3.086   2.618  1.00  0.00     0.028 A 
ATOM     11  C   UNL     1      29.269   4.320   2.299  1.00  0.00     0.002 A 
BRANCH   4  12
ATOM     12  C   UNL     1      25.670   0.430   3.240  1.00  0.00     0.272 C 
ATOM     13  O   UNL     1      25.520  -0.689   3.835  1.00  0.00    -0.267 OA
ATOM     14  N   UNL     1      24.495   1.039   2.784  1.00  0.00    -0.345 N 
ATOM     15  H   UNL     1      24.545   1.929   2.270  1.00  0.00     0.164 HD
BRANCH  14  16
ATOM     16  C   UNL     1      23.171   0.470   2.972  1.00  0.00     0.041 C 
ATOM     17  C   UNL     1      22.849   0.334   4.423  1.00  0.00     0.032 C 
ATOM     18  C   UNL     1      23.015  -0.875   2.293  1.00  0.00     0.032 C 
ATOM     19  C   UNL     1      22.135   1.380   2.328  1.00  0.00     0.032 C 
ATOM     20  C   UNL     1      21.428  -0.129   4.652  1.00  0.00    -0.008 C 
ATOM     21  C   UNL     1      21.640  -1.392   2.553  1.00  0.00    -0.008 C 
ATOM     22  C   UNL     1      20.753   0.870   2.550  1.00  0.00    -0.008 C 
ATOM     23  C   UNL     1      20.470   0.849   4.047  1.00  0.00     0.007 C 
ATOM     24  C   UNL     1      21.340  -1.515   4.019  1.00  0.00     0.007 C 
ATOM     25  C   UNL     1      20.571  -0.495   1.962  1.00  0.00     0.007 C 
ENDBRANCH  14  16
ENDBRANCH   4  12
ENDBRANCH   2   3
ENDBRANCH   1   2
BRANCH   1  26
ATOM     26  C   UNL     1      32.273  -0.267   5.262  1.00  0.00     0.005 C 
BRANCH  26  27
ATOM     27  C   UNL     1      33.600   0.089   4.839  1.00  0.00     0.034 C 
BRANCH  27  28
ATOM     28  C   UNL     1      34.161  -0.043   3.500  1.00  0.00     0.214 C 
ATOM     29  F   UNL     1      33.637   0.638   2.463  1.00  0.00    -0.251 F 
ENDBRANCH  27  28
ENDBRANCH  26  27
ENDBRANCH   1  26
TORSDOF 7
