REMARK SMILES O=C(NC12CC3CC(CC(C3)C1)C2)c1nn(CCCCCF)c2ccccc12
REMARK SMILES IDX 18 1 17 2 16 3 14 4 15 5 28 6 27 7 23 8 26 9 24 10 25 11
REMARK SMILES IDX 2 12 1 13 3 14 4 16 13 17 12 18 5 19 8 20 10 21 6 22 7 23
REMARK SMILES IDX 9 24 11 25 19 26 20 27 21 28 22 29
REMARK H PARENT 3 15
ROOT
ATOM      1  C   UNL     1      31.689   0.553   4.898  1.00  0.00     0.024 C 
ENDROOT
BRANCH   1   2
ATOM      2  C   UNL     1      31.046   1.060   3.655  1.00  0.00     0.145 C 
BRANCH   2   3
ATOM      3  N   UNL     1      29.648   1.418   3.807  1.00  0.00    -0.264 N 
ATOM      4  C   UNL     1      27.448   1.291   3.858  1.00  0.00     0.158 A 
ATOM      5  N   UNL     1      28.610   0.618   3.631  1.00  0.00    -0.166 NA
ATOM      6  C   UNL     1      27.845   2.554   4.186  1.00  0.00     0.033 A 
ATOM      7  C   UNL     1      27.158   3.686   4.532  1.00  0.00     0.013 A 
ATOM      8  C   UNL     1      29.223   2.643   4.156  1.00  0.00     0.069 A 
ATOM      9  C   UNL     1      27.843   4.841   4.827  1.00  0.00     0.001 A 
ATOM     10  C   UNL     1      29.914   3.799   4.451  1.00  0.00     0.028 A 
ATOM     11  C   UNL     1      29.217   4.945   4.800  1.00  0.00     0.002 A 
BRANCH   4  12
ATOM     12  C   UNL     1      26.169   0.635   3.747  1.00  0.00     0.272 C 
ATOM     13  O   UNL     1      26.219  -0.639   3.671  1.00  0.00    -0.267 OA
ATOM     14  N   UNL     1      24.893   1.196   3.707  1.00  0.00    -0.345 N 
ATOM     15  H   UNL     1      24.787   2.214   3.737  1.00  0.00     0.164 HD
BRANCH  14  16
ATOM     16  C   UNL     1      23.677   0.407   3.601  1.00  0.00     0.041 C 
ATOM     17  C   UNL     1      22.513   1.390   3.552  1.00  0.00     0.032 C 
ATOM     18  C   UNL     1      23.587  -0.465   4.835  1.00  0.00     0.032 C 
ATOM     19  C   UNL     1      23.587  -0.450   2.395  1.00  0.00     0.032 C 
ATOM     20  C   UNL     1      21.193   0.668   3.630  1.00  0.00    -0.008 C 
ATOM     21  C   UNL     1      22.219  -1.160   4.905  1.00  0.00    -0.008 C 
ATOM     22  C   UNL     1      22.241  -1.167   2.450  1.00  0.00    -0.008 C 
ATOM     23  C   UNL     1      21.080  -0.223   2.428  1.00  0.00     0.007 C 
ATOM     24  C   UNL     1      21.176  -0.081   4.945  1.00  0.00     0.007 C 
ATOM     25  C   UNL     1      22.093  -2.030   3.673  1.00  0.00     0.007 C 
ENDBRANCH  14  16
ENDBRANCH   4  12
ENDBRANCH   2   3
ENDBRANCH   1   2
BRANCH   1  26
ATOM     26  C   UNL     1      33.127   0.185   4.737  1.00  0.00     0.005 C 
BRANCH  26  27
ATOM     27  C   UNL     1      33.397  -0.884   3.733  1.00  0.00     0.034 C 
BRANCH  27  28
ATOM     28  C   UNL     1      32.729  -2.194   4.022  1.00  0.00     0.214 C 
ATOM     29  F   UNL     1      33.158  -2.690   5.254  1.00  0.00    -0.251 F 
ENDBRANCH  27  28
ENDBRANCH  26  27
ENDBRANCH   1  26
TORSDOF 7
