REMARK SMILES CCCCCc1cc(O)c2c(c1)OC(C)(C)[C@@H]1CCC(C)=C[C@@H]21
REMARK SMILES IDX 4 1 3 2 2 3 1 4 5 5 6 6 7 7 12 8 8 9 11 10 10 11 13 12 23 13
REMARK SMILES IDX 14 14 22 15 17 16 20 17 18 18 19 19 15 20 16 21 21 22 9 23
REMARK H PARENT 9 24
ROOT
ATOM      1  C   UNL     1      30.443   2.837   7.063  1.00  0.00     0.005 C 
ENDROOT
BRANCH   1   2
ATOM      2  C   UNL     1      31.884   3.240   7.162  1.00  0.00     0.000 C 
BRANCH   2   3
ATOM      3  C   UNL     1      32.748   2.226   7.845  1.00  0.00    -0.003 C 
ATOM      4  C   UNL     1      34.177   2.825   8.000  1.00  0.00     0.004 C 
ENDBRANCH   2   3
ENDBRANCH   1   2
BRANCH   1   5
ATOM      5  C   UNL     1      29.932   2.688   8.498  1.00  0.00     0.036 C 
BRANCH   5   6
ATOM      6  C   UNL     1      28.483   2.490   8.582  1.00  0.00    -0.041 A 
ATOM      7  C   UNL     1      27.811   1.354   8.950  1.00  0.00     0.050 A 
ATOM      8  C   UNL     1      27.685   3.574   8.286  1.00  0.00     0.050 A 
ATOM      9  C   UNL     1      26.419   1.344   9.001  1.00  0.00     0.123 A 
ATOM     10  C   UNL     1      26.307   3.588   8.337  1.00  0.00     0.127 A 
ATOM     11  C   UNL     1      25.658   2.427   8.701  1.00  0.00     0.043 A 
ATOM     12  O   UNL     1      25.707   4.805   8.061  1.00  0.00    -0.487 OA
ATOM     13  C   UNL     1      24.177   2.549   8.888  1.00  0.00     0.056 C 
ATOM     14  C   UNL     1      24.280   5.026   8.220  1.00  0.00     0.107 C 
ATOM     15  C   UNL     1      23.615   1.373   8.107  1.00  0.00    -0.019 C 
ATOM     16  C   UNL     1      23.678   3.719   8.075  1.00  0.00     0.044 C 
ATOM     17  C   UNL     1      22.381   1.384   7.756  1.00  0.00    -0.077 C 
ATOM     18  C   UNL     1      22.158   3.786   8.212  1.00  0.00     0.013 C 
ATOM     19  C   UNL     1      21.456   2.489   8.094  1.00  0.00     0.031 C 
ATOM     20  C   UNL     1      24.096   5.860   9.417  1.00  0.00     0.056 C 
ATOM     21  C   UNL     1      23.933   5.846   6.964  1.00  0.00     0.056 C 
ATOM     22  C   UNL     1      21.819   0.252   6.944  1.00  0.00     0.039 C 
BRANCH   9  23
ATOM     23  O   UNL     1      25.831   0.122   9.388  1.00  0.00    -0.507 OA
ATOM     24  H   UNL     1      25.682   0.061  10.399  1.00  0.00     0.293 HD
ENDBRANCH   9  23
ENDBRANCH   5   6
ENDBRANCH   1   5
TORSDOF 5
