REMARK SMILES CCCCCc1cc(O)c2c(c1)OC(C)(C)[C@@H]1CCC(C)=C[C@@H]21
REMARK SMILES IDX 4 1 3 2 2 3 1 4 5 5 6 6 7 7 12 8 8 9 11 10 10 11 13 12 23 13
REMARK SMILES IDX 14 14 22 15 17 16 20 17 18 18 19 19 15 20 16 21 21 22 9 23
REMARK H PARENT 9 24
ROOT
ATOM      1  C   UNL     1      31.396   1.787   7.507  1.00  0.00     0.005 C 
ENDROOT
BRANCH   1   2
ATOM      2  C   UNL     1      31.700   3.059   8.231  1.00  0.00     0.000 C 
BRANCH   2   3
ATOM      3  C   UNL     1      32.991   2.834   8.944  1.00  0.00    -0.003 C 
ATOM      4  C   UNL     1      33.366   4.066   9.694  1.00  0.00     0.004 C 
ENDBRANCH   2   3
ENDBRANCH   1   2
BRANCH   1   5
ATOM      5  C   UNL     1      30.180   1.811   6.716  1.00  0.00     0.036 C 
BRANCH   5   6
ATOM      6  C   UNL     1      28.933   2.107   7.402  1.00  0.00    -0.041 A 
ATOM      7  C   UNL     1      28.393   1.108   8.209  1.00  0.00     0.050 A 
ATOM      8  C   UNL     1      28.236   3.299   7.161  1.00  0.00     0.050 A 
ATOM      9  C   UNL     1      27.140   1.302   8.771  1.00  0.00     0.123 A 
ATOM     10  C   UNL     1      26.969   3.487   7.733  1.00  0.00     0.127 A 
ATOM     11  C   UNL     1      26.422   2.482   8.524  1.00  0.00     0.043 A 
ATOM     12  O   UNL     1      26.374   4.725   7.475  1.00  0.00    -0.487 OA
ATOM     13  C   UNL     1      25.111   2.722   9.169  1.00  0.00     0.056 C 
ATOM     14  C   UNL     1      25.095   5.025   8.049  1.00  0.00     0.107 C 
ATOM     15  C   UNL     1      24.239   1.480   8.686  1.00  0.00    -0.019 C 
ATOM     16  C   UNL     1      24.406   3.775   8.371  1.00  0.00     0.044 C 
ATOM     17  C   UNL     1      22.942   1.563   8.779  1.00  0.00    -0.077 C 
ATOM     18  C   UNL     1      23.044   4.034   8.985  1.00  0.00     0.013 C 
ATOM     19  C   UNL     1      22.325   2.785   9.327  1.00  0.00     0.031 C 
ATOM     20  C   UNL     1      24.366   5.499   6.653  1.00  0.00     0.056 C 
ATOM     21  C   UNL     1      25.027   6.238   8.849  1.00  0.00     0.056 C 
ATOM     22  C   UNL     1      22.076   0.434   8.245  1.00  0.00     0.039 C 
BRANCH   9  23
ATOM     23  O   UNL     1      26.527   0.407   9.596  1.00  0.00    -0.507 OA
ATOM     24  H   UNL     1      26.757  -0.584   9.614  1.00  0.00     0.293 HD
ENDBRANCH   9  23
ENDBRANCH   5   6
ENDBRANCH   1   5
TORSDOF 5
