REMARK SMILES CCCCCc1cc(O)c2c(c1)OC(C)(C)[C@@H]1CCC(C)=C[C@@H]21
REMARK SMILES IDX 4 1 3 2 2 3 1 4 5 5 6 6 7 7 12 8 8 9 11 10 10 11 13 12 23 13
REMARK SMILES IDX 14 14 22 15 17 16 20 17 18 18 19 19 15 20 16 21 21 22 9 23
REMARK H PARENT 9 24
ROOT
ATOM      1  C   UNL     1      31.670   1.270   7.503  1.00  0.00     0.005 C 
ENDROOT
BRANCH   1   2
ATOM      2  C   UNL     1      32.371   2.246   8.387  1.00  0.00     0.000 C 
BRANCH   2   3
ATOM      3  C   UNL     1      32.401   3.617   7.745  1.00  0.00    -0.003 C 
ATOM      4  C   UNL     1      33.561   4.403   8.312  1.00  0.00     0.004 C 
ENDBRANCH   2   3
ENDBRANCH   1   2
BRANCH   1   5
ATOM      5  C   UNL     1      30.424   1.723   6.908  1.00  0.00     0.036 C 
BRANCH   5   6
ATOM      6  C   UNL     1      29.227   2.002   7.708  1.00  0.00    -0.041 A 
ATOM      7  C   UNL     1      28.573   0.877   8.296  1.00  0.00     0.050 A 
ATOM      8  C   UNL     1      28.585   3.151   7.582  1.00  0.00     0.050 A 
ATOM      9  C   UNL     1      27.222   1.142   8.606  1.00  0.00     0.123 A 
ATOM     10  C   UNL     1      27.283   3.330   7.899  1.00  0.00     0.127 A 
ATOM     11  C   UNL     1      26.576   2.282   8.387  1.00  0.00     0.043 A 
ATOM     12  O   UNL     1      26.704   4.553   7.791  1.00  0.00    -0.487 OA
ATOM     13  C   UNL     1      25.121   2.392   8.450  1.00  0.00     0.056 C 
ATOM     14  C   UNL     1      25.351   4.817   8.081  1.00  0.00     0.107 C 
ATOM     15  C   UNL     1      24.236   1.331   8.015  1.00  0.00    -0.019 C 
ATOM     16  C   UNL     1      24.669   3.647   7.519  1.00  0.00     0.044 C 
ATOM     17  C   UNL     1      22.929   1.492   8.084  1.00  0.00    -0.077 C 
ATOM     18  C   UNL     1      23.200   3.599   7.487  1.00  0.00     0.013 C 
ATOM     19  C   UNL     1      22.517   2.905   8.663  1.00  0.00     0.031 C 
ATOM     20  C   UNL     1      24.966   5.275   9.379  1.00  0.00     0.056 C 
ATOM     21  C   UNL     1      25.016   5.934   7.018  1.00  0.00     0.056 C 
ATOM     22  C   UNL     1      21.892   0.564   7.623  1.00  0.00     0.039 C 
BRANCH   9  23
ATOM     23  O   UNL     1      26.565   0.029   9.186  1.00  0.00    -0.507 OA
ATOM     24  H   UNL     1      25.765  -0.439   9.132  1.00  0.00     0.293 HD
ENDBRANCH   9  23
ENDBRANCH   5   6
ENDBRANCH   1   5
TORSDOF 5
