REMARK SMILES CCCCCc1cc(O)c2c(c1)OC(C)(C)[C@@H]1CCC(C)=C[C@@H]21
REMARK SMILES IDX 4 1 3 2 2 3 1 4 5 5 6 6 7 7 12 8 8 9 11 10 10 11 13 12 23 13
REMARK SMILES IDX 14 14 22 15 17 16 20 17 18 18 19 19 15 20 16 21 21 22 9 23
REMARK H PARENT 9 24
ROOT
ATOM      1  C   UNL     1      30.690   2.907   8.459  1.00  0.00     0.005 C 
ENDROOT
BRANCH   1   2
ATOM      2  C   UNL     1      31.894   2.551   7.571  1.00  0.00     0.000 C 
BRANCH   2   3
ATOM      3  C   UNL     1      32.884   1.896   8.493  1.00  0.00    -0.003 C 
ATOM      4  C   UNL     1      34.031   1.404   7.607  1.00  0.00     0.004 C 
ENDBRANCH   2   3
ENDBRANCH   1   2
BRANCH   1   5
ATOM      5  C   UNL     1      29.607   3.346   7.496  1.00  0.00     0.036 C 
BRANCH   5   6
ATOM      6  C   UNL     1      28.288   3.409   8.106  1.00  0.00    -0.041 A 
ATOM      7  C   UNL     1      27.834   2.235   8.633  1.00  0.00     0.050 A 
ATOM      8  C   UNL     1      27.441   4.480   7.822  1.00  0.00     0.050 A 
ATOM      9  C   UNL     1      26.510   2.085   8.923  1.00  0.00     0.123 A 
ATOM     10  C   UNL     1      26.071   4.327   8.102  1.00  0.00     0.127 A 
ATOM     11  C   UNL     1      25.644   3.118   8.638  1.00  0.00     0.043 A 
ATOM     12  O   UNL     1      25.192   5.374   7.883  1.00  0.00    -0.487 OA
ATOM     13  C   UNL     1      24.179   2.889   8.910  1.00  0.00     0.056 C 
ATOM     14  C   UNL     1      23.770   5.258   8.179  1.00  0.00     0.107 C 
ATOM     15  C   UNL     1      23.843   1.589   8.151  1.00  0.00    -0.019 C 
ATOM     16  C   UNL     1      23.385   3.873   8.100  1.00  0.00     0.044 C 
ATOM     17  C   UNL     1      22.567   1.267   7.910  1.00  0.00    -0.077 C 
ATOM     18  C   UNL     1      21.894   3.614   8.403  1.00  0.00     0.013 C 
ATOM     19  C   UNL     1      21.534   2.168   8.393  1.00  0.00     0.031 C 
ATOM     20  C   UNL     1      23.301   6.210   9.164  1.00  0.00     0.056 C 
ATOM     21  C   UNL     1      23.222   5.889   6.790  1.00  0.00     0.056 C 
ATOM     22  C   UNL     1      22.316   0.018   7.101  1.00  0.00     0.039 C 
BRANCH   9  23
ATOM     23  O   UNL     1      26.097   0.859   9.518  1.00  0.00    -0.507 OA
ATOM     24  H   UNL     1      26.410   0.025   9.075  1.00  0.00     0.293 HD
ENDBRANCH   9  23
ENDBRANCH   5   6
ENDBRANCH   1   5
TORSDOF 5
