REMARK SMILES CCCCCc1cc(O)c2c(c1)OC(C)(C)[C@@H]1CCC(C)=C[C@@H]21
REMARK SMILES IDX 4 1 3 2 2 3 1 4 5 5 6 6 7 7 12 8 8 9 11 10 10 11 13 12 23 13
REMARK SMILES IDX 14 14 22 15 17 16 20 17 18 18 19 19 15 20 16 21 21 22 9 23
REMARK H PARENT 9 24
ROOT
ATOM      1  C   UNL     1      31.128   2.961   8.907  1.00  0.00     0.005 C 
ENDROOT
BRANCH   1   2
ATOM      2  C   UNL     1      32.547   2.871   8.378  1.00  0.00     0.000 C 
BRANCH   2   3
ATOM      3  C   UNL     1      32.653   1.670   7.437  1.00  0.00    -0.003 C 
ATOM      4  C   UNL     1      34.079   1.506   6.940  1.00  0.00     0.004 C 
ENDBRANCH   2   3
ENDBRANCH   1   2
BRANCH   1   5
ATOM      5  C   UNL     1      30.186   3.082   7.767  1.00  0.00     0.036 C 
BRANCH   5   6
ATOM      6  C   UNL     1      28.752   3.101   8.172  1.00  0.00    -0.041 A 
ATOM      7  C   UNL     1      28.240   1.884   8.509  1.00  0.00     0.050 A 
ATOM      8  C   UNL     1      27.979   4.211   7.970  1.00  0.00     0.050 A 
ATOM      9  C   UNL     1      26.836   1.723   8.659  1.00  0.00     0.123 A 
ATOM     10  C   UNL     1      26.583   4.042   8.119  1.00  0.00     0.127 A 
ATOM     11  C   UNL     1      25.972   2.870   8.434  1.00  0.00     0.043 A 
ATOM     12  O   UNL     1      25.862   5.252   7.993  1.00  0.00    -0.487 OA
ATOM     13  C   UNL     1      24.506   2.744   8.535  1.00  0.00     0.056 C 
ATOM     14  C   UNL     1      24.381   5.215   8.264  1.00  0.00     0.107 C 
ATOM     15  C   UNL     1      23.958   1.419   8.156  1.00  0.00    -0.019 C 
ATOM     16  C   UNL     1      23.981   3.878   7.808  1.00  0.00     0.044 C 
ATOM     17  C   UNL     1      22.760   1.177   7.566  1.00  0.00    -0.077 C 
ATOM     18  C   UNL     1      22.406   3.707   7.863  1.00  0.00     0.013 C 
ATOM     19  C   UNL     1      22.007   2.332   7.261  1.00  0.00     0.031 C 
ATOM     20  C   UNL     1      24.140   5.524   9.651  1.00  0.00     0.056 C 
ATOM     21  C   UNL     1      23.905   6.365   7.413  1.00  0.00     0.056 C 
ATOM     22  C   UNL     1      22.414  -0.255   7.190  1.00  0.00     0.039 C 
BRANCH   9  23
ATOM     23  O   UNL     1      26.492   0.453   9.011  1.00  0.00    -0.507 OA
ATOM     24  H   UNL     1      26.888  -0.270   8.473  1.00  0.00     0.293 HD
ENDBRANCH   9  23
ENDBRANCH   5   6
ENDBRANCH   1   5
TORSDOF 5
