REMARK SMILES C[C@]12CC[C@H]3[C@@H](CCC4=CC(=O)CC[C@@]43C)[C@@H]1CC[C@@H]2O
REMARK SMILES IDX 1 1 2 2 3 3 4 4 5 5 6 6 7 7 8 8 9 9 10 10 11 11 12 12 13 13
REMARK SMILES IDX 14 14 15 15 16 16 17 17 18 18 19 19 20 20 21 21
REMARK H PARENT 21 22
ROOT
ATOM      1  C   UNL     1      30.645   1.846   7.602  1.00  0.00     0.014 C 
ATOM      2  C   UNL     1      30.181   2.680   8.788  1.00  0.00    -0.003 C 
ATOM      3  C   UNL     1      29.334   1.751   9.560  1.00  0.00     0.010 C 
ATOM      4  C   UNL     1      28.183   1.329   8.720  1.00  0.00     0.005 C 
ATOM      5  C   UNL     1      27.449   2.546   8.314  1.00  0.00     0.002 C 
ATOM      6  C   UNL     1      28.289   3.546   7.531  1.00  0.00    -0.003 C 
ATOM      7  C   UNL     1      27.424   4.658   7.028  1.00  0.00     0.008 C 
ATOM      8  C   UNL     1      26.424   5.188   8.047  1.00  0.00     0.032 C 
ATOM      9  C   UNL     1      25.489   3.949   8.264  1.00  0.00    -0.060 C 
ATOM     10  C   UNL     1      24.252   4.043   8.705  1.00  0.00     0.047 C 
ATOM     11  C   UNL     1      23.463   2.895   8.882  1.00  0.00     0.155 C 
ATOM     12  O   UNL     1      22.416   2.892   9.519  1.00  0.00    -0.295 OA
ATOM     13  C   UNL     1      23.846   1.549   8.310  1.00  0.00     0.081 C 
ATOM     14  C   UNL     1      25.295   1.425   8.653  1.00  0.00     0.019 C 
ATOM     15  C   UNL     1      26.028   2.601   7.936  1.00  0.00    -0.008 C 
ATOM     16  C   UNL     1      25.861   2.271   6.446  1.00  0.00     0.016 C 
ATOM     17  C   UNL     1      29.441   3.956   8.368  1.00  0.00     0.001 C 
ATOM     18  C   UNL     1      30.560   4.317   7.324  1.00  0.00     0.007 C 
ATOM     19  C   UNL     1      31.797   4.247   8.188  1.00  0.00     0.032 C 
ATOM     20  C   UNL     1      31.371   3.310   9.384  1.00  0.00     0.120 C 
ENDROOT
BRANCH  20  21
ATOM     21  O   UNL     1      32.323   2.320   9.579  1.00  0.00    -0.393 OA
ATOM     22  H   UNL     1      33.072   2.681  10.093  1.00  0.00     0.210 HD
ENDBRANCH  20  21
TORSDOF 1
