REMARK SMILES C[C@]12CC[C@H]3[C@@H](CCC4=CC(=O)CC[C@@]43C)[C@@H]1CC[C@@H]2O
REMARK SMILES IDX 1 1 2 2 3 3 4 4 5 5 6 6 7 7 8 8 9 9 10 10 11 11 12 12 13 13
REMARK SMILES IDX 14 14 15 15 16 16 17 17 18 18 19 19 20 20 21 21
REMARK H PARENT 21 22
ROOT
ATOM      1  C   UNL     1      30.793   2.001   7.149  1.00  0.00     0.014 C 
ATOM      2  C   UNL     1      30.391   2.575   8.492  1.00  0.00    -0.003 C 
ATOM      3  C   UNL     1      29.599   1.537   9.232  1.00  0.00     0.010 C 
ATOM      4  C   UNL     1      28.263   1.404   8.604  1.00  0.00     0.005 C 
ATOM      5  C   UNL     1      27.534   2.771   8.607  1.00  0.00     0.002 C 
ATOM      6  C   UNL     1      28.408   3.721   7.778  1.00  0.00    -0.003 C 
ATOM      7  C   UNL     1      27.657   5.075   7.751  1.00  0.00     0.008 C 
ATOM      8  C   UNL     1      26.360   4.878   7.035  1.00  0.00     0.032 C 
ATOM      9  C   UNL     1      25.504   3.849   7.642  1.00  0.00    -0.060 C 
ATOM     10  C   UNL     1      24.223   4.070   7.815  1.00  0.00     0.047 C 
ATOM     11  C   UNL     1      23.396   3.038   8.387  1.00  0.00     0.155 C 
ATOM     12  O   UNL     1      22.187   3.320   8.762  1.00  0.00    -0.295 OA
ATOM     13  C   UNL     1      23.946   1.649   8.531  1.00  0.00     0.081 C 
ATOM     14  C   UNL     1      25.397   1.826   9.007  1.00  0.00     0.019 C 
ATOM     15  C   UNL     1      26.204   2.586   7.922  1.00  0.00    -0.008 C 
ATOM     16  C   UNL     1      26.223   1.630   6.777  1.00  0.00     0.016 C 
ATOM     17  C   UNL     1      29.731   3.904   8.451  1.00  0.00     0.001 C 
ATOM     18  C   UNL     1      30.779   4.564   7.552  1.00  0.00     0.007 C 
ATOM     19  C   UNL     1      32.059   4.277   8.271  1.00  0.00     0.032 C 
ATOM     20  C   UNL     1      31.651   3.076   9.224  1.00  0.00     0.120 C 
ENDROOT
BRANCH  20  21
ATOM     21  O   UNL     1      32.614   2.065   8.995  1.00  0.00    -0.393 OA
ATOM     22  H   UNL     1      33.301   2.295   8.366  1.00  0.00     0.210 HD
ENDBRANCH  20  21
TORSDOF 1
