REMARK SMILES C[C@]12CC[C@H]3[C@@H](CCC4=CC(=O)CC[C@@]43C)[C@@H]1CC[C@@H]2O
REMARK SMILES IDX 1 1 2 2 3 3 4 4 5 5 6 6 7 7 8 8 9 9 10 10 11 11 12 12 13 13
REMARK SMILES IDX 14 14 15 15 16 16 17 17 18 18 19 19 20 20 21 21
REMARK H PARENT 21 22
ROOT
ATOM      1  C   UNL     1      30.635   2.171   7.349  1.00  0.00     0.014 C 
ATOM      2  C   UNL     1      30.053   2.640   8.676  1.00  0.00    -0.003 C 
ATOM      3  C   UNL     1      29.347   1.604   9.413  1.00  0.00     0.010 C 
ATOM      4  C   UNL     1      27.988   1.473   8.660  1.00  0.00     0.005 C 
ATOM      5  C   UNL     1      27.210   2.778   8.632  1.00  0.00     0.002 C 
ATOM      6  C   UNL     1      28.119   3.759   7.943  1.00  0.00    -0.003 C 
ATOM      7  C   UNL     1      27.444   5.107   7.651  1.00  0.00     0.008 C 
ATOM      8  C   UNL     1      26.222   4.788   6.726  1.00  0.00     0.032 C 
ATOM      9  C   UNL     1      25.379   3.863   7.657  1.00  0.00    -0.060 C 
ATOM     10  C   UNL     1      24.397   4.345   8.263  1.00  0.00     0.047 C 
ATOM     11  C   UNL     1      23.623   3.498   9.169  1.00  0.00     0.155 C 
ATOM     12  O   UNL     1      22.439   3.690   9.488  1.00  0.00    -0.295 OA
ATOM     13  C   UNL     1      24.419   2.281   9.693  1.00  0.00     0.081 C 
ATOM     14  C   UNL     1      24.970   1.611   8.490  1.00  0.00     0.019 C 
ATOM     15  C   UNL     1      26.034   2.476   7.808  1.00  0.00    -0.008 C 
ATOM     16  C   UNL     1      26.280   1.870   6.493  1.00  0.00     0.016 C 
ATOM     17  C   UNL     1      29.372   3.967   8.620  1.00  0.00     0.001 C 
ATOM     18  C   UNL     1      30.450   4.668   7.823  1.00  0.00     0.007 C 
ATOM     19  C   UNL     1      31.734   4.350   8.688  1.00  0.00     0.032 C 
ATOM     20  C   UNL     1      31.268   3.123   9.520  1.00  0.00     0.120 C 
ENDROOT
BRANCH  20  21
ATOM     21  O   UNL     1      32.235   2.185   9.388  1.00  0.00    -0.393 OA
ATOM     22  H   UNL     1      33.048   2.483   8.889  1.00  0.00     0.210 HD
ENDBRANCH  20  21
TORSDOF 1
