REMARK SMILES C[C@]12CC[C@H]3[C@@H](CCC4=CC(=O)CC[C@@]43C)[C@@H]1CC[C@@H]2O
REMARK SMILES IDX 1 1 2 2 3 3 4 4 5 5 6 6 7 7 8 8 9 9 10 10 11 11 12 12 13 13
REMARK SMILES IDX 14 14 15 15 16 16 17 17 18 18 19 19 20 20 21 21
REMARK H PARENT 21 22
ROOT
ATOM      1  C   UNL     1      31.166   2.105   7.241  1.00  0.00     0.014 C 
ATOM      2  C   UNL     1      30.567   2.569   8.507  1.00  0.00    -0.003 C 
ATOM      3  C   UNL     1      29.812   1.538   9.248  1.00  0.00     0.010 C 
ATOM      4  C   UNL     1      28.441   1.401   8.577  1.00  0.00     0.005 C 
ATOM      5  C   UNL     1      27.720   2.732   8.629  1.00  0.00     0.002 C 
ATOM      6  C   UNL     1      28.558   3.717   7.788  1.00  0.00    -0.003 C 
ATOM      7  C   UNL     1      27.773   5.061   7.824  1.00  0.00     0.008 C 
ATOM      8  C   UNL     1      26.460   4.877   7.126  1.00  0.00     0.032 C 
ATOM      9  C   UNL     1      25.636   3.807   7.782  1.00  0.00    -0.060 C 
ATOM     10  C   UNL     1      24.388   4.061   8.009  1.00  0.00     0.047 C 
ATOM     11  C   UNL     1      23.531   3.081   8.619  1.00  0.00     0.155 C 
ATOM     12  O   UNL     1      22.397   3.374   8.962  1.00  0.00    -0.295 OA
ATOM     13  C   UNL     1      24.147   1.693   8.782  1.00  0.00     0.081 C 
ATOM     14  C   UNL     1      25.567   1.837   9.177  1.00  0.00     0.019 C 
ATOM     15  C   UNL     1      26.364   2.568   7.995  1.00  0.00    -0.008 C 
ATOM     16  C   UNL     1      26.246   1.653   6.825  1.00  0.00     0.016 C 
ATOM     17  C   UNL     1      29.877   3.910   8.453  1.00  0.00     0.001 C 
ATOM     18  C   UNL     1      30.950   4.591   7.620  1.00  0.00     0.007 C 
ATOM     19  C   UNL     1      32.178   4.276   8.492  1.00  0.00     0.032 C 
ATOM     20  C   UNL     1      31.722   3.124   9.395  1.00  0.00     0.120 C 
ENDROOT
BRANCH  20  21
ATOM     21  O   UNL     1      32.719   2.223   9.583  1.00  0.00    -0.393 OA
ATOM     22  H   UNL     1      32.925   1.643   8.811  1.00  0.00     0.210 HD
ENDBRANCH  20  21
TORSDOF 1
