REMARK SMILES CCCCCc1cc(O)c2c(c1)OC(C)(C)c1ccc(C)cc1-2
REMARK SMILES IDX 4 1 3 2 2 3 1 4 5 5 6 6 12 7 7 8 11 9 8 10 10 11 13 12 23 13
REMARK SMILES IDX 14 14 22 15 17 16 20 17 18 18 19 19 15 20 16 21 21 22 9 23
REMARK H PARENT 9 24
ROOT
ATOM      1  C   UNL     1      32.031   0.218   6.347  1.00  0.00     0.005 C 
ENDROOT
BRANCH   1   2
ATOM      2  C   UNL     1      32.149   1.703   6.675  1.00  0.00     0.000 C 
BRANCH   2   3
ATOM      3  C   UNL     1      32.998   1.949   7.920  1.00  0.00    -0.003 C 
ATOM      4  C   UNL     1      33.111   3.433   8.244  1.00  0.00     0.004 C 
ENDBRANCH   2   3
ENDBRANCH   1   2
BRANCH   1   5
ATOM      5  C   UNL     1      31.185  -0.036   5.092  1.00  0.00     0.036 C 
BRANCH   5   6
ATOM      6  C   UNL     1      29.762   0.394   5.299  1.00  0.00    -0.041 A 
ATOM      7  C   UNL     1      28.894  -0.388   6.041  1.00  0.00     0.051 A 
ATOM      8  C   UNL     1      29.288   1.583   4.765  1.00  0.00     0.050 A 
ATOM      9  C   UNL     1      27.585   0.022   6.258  1.00  0.00     0.132 A 
ATOM     10  C   UNL     1      27.992   2.021   5.002  1.00  0.00     0.127 A 
ATOM     11  C   UNL     1      27.114   1.258   5.786  1.00  0.00     0.066 A 
ATOM     12  O   UNL     1      26.797  -0.814   6.975  1.00  0.00    -0.482 OA
ATOM     13  C   UNL     1      25.771   1.665   6.200  1.00  0.00    -0.003 A 
ATOM     14  C   UNL     1      25.387  -0.753   6.726  1.00  0.00     0.129 C 
ATOM     15  C   UNL     1      25.338   2.988   6.177  1.00  0.00     0.012 A 
ATOM     16  C   UNL     1      24.911   0.682   6.710  1.00  0.00     0.003 A 
ATOM     17  C   UNL     1      24.070   3.346   6.606  1.00  0.00    -0.050 A 
ATOM     18  C   UNL     1      23.644   1.040   7.138  1.00  0.00     0.009 A 
ATOM     19  C   UNL     1      23.222   2.355   7.082  1.00  0.00     0.004 A 
ATOM     20  C   UNL     1      24.768  -1.589   7.847  1.00  0.00     0.062 C 
ATOM     21  C   UNL     1      25.092  -1.391   5.358  1.00  0.00     0.062 C 
ATOM     22  C   UNL     1      23.635   4.780   6.578  1.00  0.00     0.044 C 
BRANCH  10  23
ATOM     23  O   UNL     1      27.572   3.196   4.450  1.00  0.00    -0.507 OA
ATOM     24  H   UNL     1      28.282   3.556   3.903  1.00  0.00     0.293 HD
ENDBRANCH  10  23
ENDBRANCH   5   6
ENDBRANCH   1   5
TORSDOF 5
