REMARK SMILES CCCCCc1cc(O)c2c(c1)OC(C)(C)c1ccc(C)cc1-2
REMARK SMILES IDX 4 1 3 2 2 3 1 4 5 5 6 6 7 7 12 8 8 9 11 10 10 11 13 12 23 13
REMARK SMILES IDX 14 14 22 15 17 16 20 17 18 18 19 19 15 20 16 21 21 22 9 23
REMARK H PARENT 9 24
ROOT
ATOM      1  C   UNL     1      30.873   2.743   9.269  1.00  0.00     0.005 C 
ENDROOT
BRANCH   1   2
ATOM      2  C   UNL     1      32.375   2.748   9.076  1.00  0.00     0.000 C 
BRANCH   2   3
ATOM      3  C   UNL     1      32.871   3.892   8.249  1.00  0.00    -0.003 C 
ATOM      4  C   UNL     1      34.388   3.734   8.163  1.00  0.00     0.004 C 
ENDBRANCH   2   3
ENDBRANCH   1   2
BRANCH   1   5
ATOM      5  C   UNL     1      30.127   2.655   7.983  1.00  0.00     0.036 C 
BRANCH   5   6
ATOM      6  C   UNL     1      28.676   2.644   8.071  1.00  0.00    -0.041 A 
ATOM      7  C   UNL     1      28.012   1.448   8.185  1.00  0.00     0.050 A 
ATOM      8  C   UNL     1      27.987   3.837   8.039  1.00  0.00     0.051 A 
ATOM      9  C   UNL     1      26.616   1.431   8.270  1.00  0.00     0.127 A 
ATOM     10  C   UNL     1      26.589   3.815   8.125  1.00  0.00     0.132 A 
ATOM     11  C   UNL     1      25.925   2.615   8.239  1.00  0.00     0.066 A 
ATOM     12  O   UNL     1      25.973   5.050   8.086  1.00  0.00    -0.482 OA
ATOM     13  C   UNL     1      24.484   2.650   8.323  1.00  0.00    -0.003 A 
ATOM     14  C   UNL     1      24.578   5.168   8.162  1.00  0.00     0.129 C 
ATOM     15  C   UNL     1      23.737   1.501   8.439  1.00  0.00     0.012 A 
ATOM     16  C   UNL     1      23.866   3.871   8.285  1.00  0.00     0.003 A 
ATOM     17  C   UNL     1      22.336   1.550   8.521  1.00  0.00    -0.050 A 
ATOM     18  C   UNL     1      22.479   3.948   8.364  1.00  0.00     0.009 A 
ATOM     19  C   UNL     1      21.754   2.785   8.479  1.00  0.00     0.004 A 
ATOM     20  C   UNL     1      24.208   5.964   9.414  1.00  0.00     0.062 C 
ATOM     21  C   UNL     1      24.060   5.977   6.989  1.00  0.00     0.062 C 
ATOM     22  C   UNL     1      21.524   0.311   8.646  1.00  0.00     0.044 C 
BRANCH   9  23
ATOM     23  O   UNL     1      26.046   0.182   8.381  1.00  0.00    -0.507 OA
ATOM     24  H   UNL     1      26.353  -0.414   9.155  1.00  0.00     0.293 HD
ENDBRANCH   9  23
ENDBRANCH   5   6
ENDBRANCH   1   5
TORSDOF 5
