REMARK SMILES CCCCCc1cc(O)c2c(c1)OC(C)(C)c1ccc(C)cc1-2
REMARK SMILES IDX 4 1 3 2 2 3 1 4 5 5 6 6 7 7 12 8 8 9 11 10 10 11 13 12 23 13
REMARK SMILES IDX 14 14 22 15 17 16 20 17 18 18 19 19 15 20 16 21 21 22 9 23
REMARK H PARENT 9 24
ROOT
ATOM      1  C   UNL     1      30.816   2.714   7.868  1.00  0.00     0.005 C 
ENDROOT
BRANCH   1   2
ATOM      2  C   UNL     1      32.315   2.700   7.945  1.00  0.00     0.000 C 
BRANCH   2   3
ATOM      3  C   UNL     1      32.853   4.010   8.510  1.00  0.00    -0.003 C 
ATOM      4  C   UNL     1      34.363   3.902   8.546  1.00  0.00     0.004 C 
ENDBRANCH   2   3
ENDBRANCH   1   2
BRANCH   1   5
ATOM      5  C   UNL     1      30.200   2.910   9.239  1.00  0.00     0.036 C 
BRANCH   5   6
ATOM      6  C   UNL     1      28.715   2.909   9.062  1.00  0.00    -0.041 A 
ATOM      7  C   UNL     1      28.083   1.691   9.155  1.00  0.00     0.050 A 
ATOM      8  C   UNL     1      28.022   4.062   8.821  1.00  0.00     0.051 A 
ATOM      9  C   UNL     1      26.692   1.625   8.998  1.00  0.00     0.127 A 
ATOM     10  C   UNL     1      26.653   3.962   8.671  1.00  0.00     0.132 A 
ATOM     11  C   UNL     1      25.973   2.770   8.755  1.00  0.00     0.066 A 
ATOM     12  O   UNL     1      25.960   5.126   8.428  1.00  0.00    -0.482 OA
ATOM     13  C   UNL     1      24.547   2.754   8.587  1.00  0.00    -0.003 A 
ATOM     14  C   UNL     1      24.585   5.255   8.247  1.00  0.00     0.129 C 
ATOM     15  C   UNL     1      23.830   1.586   8.663  1.00  0.00     0.012 A 
ATOM     16  C   UNL     1      23.889   3.922   8.348  1.00  0.00     0.003 A 
ATOM     17  C   UNL     1      22.436   1.580   8.498  1.00  0.00    -0.050 A 
ATOM     18  C   UNL     1      22.507   3.987   8.174  1.00  0.00     0.009 A 
ATOM     19  C   UNL     1      21.833   2.790   8.259  1.00  0.00     0.004 A 
ATOM     20  C   UNL     1      24.366   5.891   6.889  1.00  0.00     0.062 C 
ATOM     21  C   UNL     1      24.037   6.166   9.328  1.00  0.00     0.062 C 
ATOM     22  C   UNL     1      21.639   0.342   8.574  1.00  0.00     0.044 C 
BRANCH   9  23
ATOM     23  O   UNL     1      26.150   0.362   9.108  1.00  0.00    -0.507 OA
ATOM     24  H   UNL     1      26.493  -0.262   9.833  1.00  0.00     0.293 HD
ENDBRANCH   9  23
ENDBRANCH   5   6
ENDBRANCH   1   5
TORSDOF 5
