REMARK SMILES CCCCCc1cc(O)c2c(c1)OC(C)(C)c1ccc(C)cc1-2
REMARK SMILES IDX 4 1 3 2 2 3 1 4 5 5 6 6 7 7 12 8 8 9 11 10 10 11 13 12 23 13
REMARK SMILES IDX 14 14 22 15 17 16 20 17 18 18 19 19 15 20 16 21 21 22 9 23
REMARK H PARENT 9 24
ROOT
ATOM      1  C   UNL     1      31.414   2.246   8.108  1.00  0.00     0.005 C 
ENDROOT
BRANCH   1   2
ATOM      2  C   UNL     1      32.890   2.209   8.401  1.00  0.00     0.000 C 
BRANCH   2   3
ATOM      3  C   UNL     1      33.420   3.475   8.972  1.00  0.00    -0.003 C 
ATOM      4  C   UNL     1      33.149   4.582   7.958  1.00  0.00     0.004 C 
ENDBRANCH   2   3
ENDBRANCH   1   2
BRANCH   1   5
ATOM      5  C   UNL     1      30.652   2.503   9.343  1.00  0.00     0.036 C 
BRANCH   5   6
ATOM      6  C   UNL     1      29.183   2.548   9.161  1.00  0.00    -0.041 A 
ATOM      7  C   UNL     1      28.486   1.373   9.293  1.00  0.00     0.050 A 
ATOM      8  C   UNL     1      28.568   3.744   8.871  1.00  0.00     0.051 A 
ATOM      9  C   UNL     1      27.095   1.379   9.128  1.00  0.00     0.127 A 
ATOM     10  C   UNL     1      27.183   3.708   8.714  1.00  0.00     0.132 A 
ATOM     11  C   UNL     1      26.449   2.555   8.838  1.00  0.00     0.066 A 
ATOM     12  O   UNL     1      26.563   4.892   8.425  1.00  0.00    -0.482 OA
ATOM     13  C   UNL     1      25.030   2.610   8.660  1.00  0.00    -0.003 A 
ATOM     14  C   UNL     1      25.201   5.092   8.228  1.00  0.00     0.129 C 
ATOM     15  C   UNL     1      24.237   1.490   8.771  1.00  0.00     0.012 A 
ATOM     16  C   UNL     1      24.430   3.812   8.371  1.00  0.00     0.003 A 
ATOM     17  C   UNL     1      22.844   1.556   8.595  1.00  0.00    -0.050 A 
ATOM     18  C   UNL     1      23.055   3.941   8.185  1.00  0.00     0.009 A 
ATOM     19  C   UNL     1      22.313   2.789   8.307  1.00  0.00     0.004 A 
ATOM     20  C   UNL     1      24.606   6.024   9.290  1.00  0.00     0.062 C 
ATOM     21  C   UNL     1      24.972   5.753   6.899  1.00  0.00     0.062 C 
ATOM     22  C   UNL     1      21.991   0.344   8.715  1.00  0.00     0.044 C 
BRANCH   9  23
ATOM     23  O   UNL     1      26.480   0.155   9.279  1.00  0.00    -0.507 OA
ATOM     24  H   UNL     1      26.710  -0.677   8.790  1.00  0.00     0.293 HD
ENDBRANCH   9  23
ENDBRANCH   5   6
ENDBRANCH   1   5
TORSDOF 5
