REMARK SMILES CCCCCc1cc(O)c2c(c1)OC(C)(C)c1ccc(C)cc1-2
REMARK SMILES IDX 4 1 3 2 2 3 1 4 5 5 6 6 7 7 12 8 8 9 11 10 10 11 13 12 23 13
REMARK SMILES IDX 14 14 22 15 17 16 20 17 18 18 19 19 15 20 16 21 21 22 9 23
REMARK H PARENT 9 24
ROOT
ATOM      1  C   UNL     1      31.355   2.323   8.179  1.00  0.00     0.005 C 
ENDROOT
BRANCH   1   2
ATOM      2  C   UNL     1      32.850   2.274   8.356  1.00  0.00     0.000 C 
BRANCH   2   3
ATOM      3  C   UNL     1      33.443   3.538   8.883  1.00  0.00    -0.003 C 
ATOM      4  C   UNL     1      33.185   4.711   7.979  1.00  0.00     0.004 C 
ENDBRANCH   2   3
ENDBRANCH   1   2
BRANCH   1   5
ATOM      5  C   UNL     1      30.586   2.592   9.430  1.00  0.00     0.036 C 
BRANCH   5   6
ATOM      6  C   UNL     1      29.125   2.632   9.221  1.00  0.00    -0.041 A 
ATOM      7  C   UNL     1      28.418   1.463   9.344  1.00  0.00     0.050 A 
ATOM      8  C   UNL     1      28.516   3.824   8.911  1.00  0.00     0.051 A 
ATOM      9  C   UNL     1      27.037   1.453   9.155  1.00  0.00     0.127 A 
ATOM     10  C   UNL     1      27.135   3.777   8.730  1.00  0.00     0.132 A 
ATOM     11  C   UNL     1      26.402   2.628   8.845  1.00  0.00     0.066 A 
ATOM     12  O   UNL     1      26.522   4.976   8.418  1.00  0.00    -0.482 OA
ATOM     13  C   UNL     1      24.981   2.691   8.637  1.00  0.00    -0.003 A 
ATOM     14  C   UNL     1      25.158   5.174   8.193  1.00  0.00     0.129 C 
ATOM     15  C   UNL     1      24.186   1.572   8.739  1.00  0.00     0.012 A 
ATOM     16  C   UNL     1      24.421   3.904   8.331  1.00  0.00     0.003 A 
ATOM     17  C   UNL     1      22.797   1.634   8.535  1.00  0.00    -0.050 A 
ATOM     18  C   UNL     1      23.047   3.961   8.130  1.00  0.00     0.009 A 
ATOM     19  C   UNL     1      22.252   2.843   8.232  1.00  0.00     0.004 A 
ATOM     20  C   UNL     1      24.952   5.813   6.840  1.00  0.00     0.062 C 
ATOM     21  C   UNL     1      24.651   6.090   9.286  1.00  0.00     0.062 C 
ATOM     22  C   UNL     1      21.939   0.431   8.644  1.00  0.00     0.044 C 
BRANCH   9  23
ATOM     23  O   UNL     1      26.418   0.233   9.300  1.00  0.00    -0.507 OA
ATOM     24  H   UNL     1      26.750  -0.652   8.999  1.00  0.00     0.293 HD
ENDBRANCH   9  23
ENDBRANCH   5   6
ENDBRANCH   1   5
TORSDOF 5
