REMARK SMILES CCCCCc1cc(O)c2c(c1)OC(C)(C)c1ccc(C)cc1-2
REMARK SMILES IDX 4 1 3 2 2 3 1 4 5 5 6 6 7 7 12 8 8 9 11 10 10 11 13 12 23 13
REMARK SMILES IDX 14 14 22 15 17 16 20 17 18 18 19 19 15 20 16 21 21 22 9 23
REMARK H PARENT 9 24
ROOT
ATOM      1  C   UNL     1      31.089   2.797   8.457  1.00  0.00     0.005 C 
ENDROOT
BRANCH   1   2
ATOM      2  C   UNL     1      32.555   2.825   8.883  1.00  0.00     0.000 C 
BRANCH   2   3
ATOM      3  C   UNL     1      33.382   2.764   7.619  1.00  0.00    -0.003 C 
ATOM      4  C   UNL     1      33.053   3.950   6.755  1.00  0.00     0.004 C 
ENDBRANCH   2   3
ENDBRANCH   1   2
BRANCH   1   5
ATOM      5  C   UNL     1      30.249   2.858   9.712  1.00  0.00     0.036 C 
BRANCH   5   6
ATOM      6  C   UNL     1      28.808   2.833   9.355  1.00  0.00    -0.041 A 
ATOM      7  C   UNL     1      28.174   1.622   9.255  1.00  0.00     0.050 A 
ATOM      8  C   UNL     1      28.096   3.988   9.122  1.00  0.00     0.051 A 
ATOM      9  C   UNL     1      26.815   1.559   8.920  1.00  0.00     0.127 A 
ATOM     10  C   UNL     1      26.747   3.958   8.787  1.00  0.00     0.132 A 
ATOM     11  C   UNL     1      26.133   2.711   8.695  1.00  0.00     0.066 A 
ATOM     12  O   UNL     1      26.126   5.148   8.576  1.00  0.00    -0.482 OA
ATOM     13  C   UNL     1      24.736   2.700   8.347  1.00  0.00    -0.003 A 
ATOM     14  C   UNL     1      24.771   5.224   8.235  1.00  0.00     0.129 C 
ATOM     15  C   UNL     1      24.024   1.530   8.226  1.00  0.00     0.012 A 
ATOM     16  C   UNL     1      24.111   3.900   8.134  1.00  0.00     0.003 A 
ATOM     17  C   UNL     1      22.660   1.524   7.887  1.00  0.00    -0.050 A 
ATOM     18  C   UNL     1      22.757   3.927   7.795  1.00  0.00     0.009 A 
ATOM     19  C   UNL     1      22.070   2.746   7.681  1.00  0.00     0.004 A 
ATOM     20  C   UNL     1      24.552   5.902   6.896  1.00  0.00     0.062 C 
ATOM     21  C   UNL     1      24.114   6.047   9.354  1.00  0.00     0.062 C 
ATOM     22  C   UNL     1      21.900   0.253   7.759  1.00  0.00     0.044 C 
BRANCH   9  23
ATOM     23  O   UNL     1      26.293   0.283   8.851  1.00  0.00    -0.507 OA
ATOM     24  H   UNL     1      26.523  -0.469   9.519  1.00  0.00     0.293 HD
ENDBRANCH   9  23
ENDBRANCH   5   6
ENDBRANCH   1   5
TORSDOF 5
