REMARK SMILES O=C(NC12CC3CC(CC(C3)C1)C2)c1nn(CCCCCF)c2ccccc12
REMARK SMILES IDX 18 1 17 2 16 3 14 4 15 5 28 6 27 7 23 8 26 9 24 10 25 11
REMARK SMILES IDX 2 12 1 13 3 14 4 16 13 17 12 18 5 19 8 20 10 21 6 22 7 23
REMARK SMILES IDX 9 24 11 25 19 26 20 27 21 28 22 29
REMARK H PARENT 3 15
ROOT
ATOM      1  C   UNL     1      31.939   1.960   9.432  1.00  0.00     0.024 C 
ENDROOT
BRANCH   1   2
ATOM      2  C   UNL     1      31.501   2.407   8.101  1.00  0.00     0.145 C 
BRANCH   2   3
ATOM      3  N   UNL     1      30.159   3.062   8.210  1.00  0.00    -0.264 N 
ATOM      4  C   UNL     1      27.982   3.286   8.245  1.00  0.00     0.158 A 
ATOM      5  N   UNL     1      28.991   2.432   8.102  1.00  0.00    -0.166 NA
ATOM      6  C   UNL     1      28.584   4.528   8.457  1.00  0.00     0.033 A 
ATOM      7  C   UNL     1      28.090   5.799   8.672  1.00  0.00     0.013 A 
ATOM      8  C   UNL     1      29.963   4.376   8.433  1.00  0.00     0.069 A 
ATOM      9  C   UNL     1      28.923   6.894   8.860  1.00  0.00     0.001 A 
ATOM     10  C   UNL     1      30.828   5.433   8.614  1.00  0.00     0.028 A 
ATOM     11  C   UNL     1      30.300   6.688   8.827  1.00  0.00     0.002 A 
BRANCH   4  12
ATOM     12  C   UNL     1      26.540   3.052   8.203  1.00  0.00     0.272 C 
ATOM     13  O   UNL     1      25.732   4.024   8.367  1.00  0.00    -0.267 OA
ATOM     14  N   UNL     1      26.033   1.761   7.983  1.00  0.00    -0.345 N 
ATOM     15  H   UNL     1      26.750   0.987   7.852  1.00  0.00     0.164 HD
BRANCH  14  16
ATOM     16  C   UNL     1      24.632   1.419   7.922  1.00  0.00     0.041 C 
ATOM     17  C   UNL     1      24.457  -0.070   7.669  1.00  0.00     0.032 C 
ATOM     18  C   UNL     1      24.060   1.704   9.296  1.00  0.00     0.032 C 
ATOM     19  C   UNL     1      23.857   2.220   6.905  1.00  0.00     0.032 C 
ATOM     20  C   UNL     1      23.014  -0.443   7.750  1.00  0.00    -0.008 C 
ATOM     21  C   UNL     1      22.603   1.317   9.412  1.00  0.00    -0.008 C 
ATOM     22  C   UNL     1      22.405   1.784   7.029  1.00  0.00    -0.008 C 
ATOM     23  C   UNL     1      22.289   0.337   6.675  1.00  0.00     0.007 C 
ATOM     24  C   UNL     1      22.438  -0.149   9.113  1.00  0.00     0.007 C 
ATOM     25  C   UNL     1      21.846   2.119   8.391  1.00  0.00     0.007 C 
ENDBRANCH  14  16
ENDBRANCH   4  12
ENDBRANCH   2   3
ENDBRANCH   1   2
BRANCH   1  26
ATOM     26  C   UNL     1      33.280   1.334   9.460  1.00  0.00     0.005 C 
BRANCH  26  27
ATOM     27  C   UNL     1      33.607   0.086   8.785  1.00  0.00     0.034 C 
BRANCH  27  28
ATOM     28  C   UNL     1      33.484  -0.079   7.328  1.00  0.00     0.214 C 
ATOM     29  F   UNL     1      33.977  -1.391   7.044  1.00  0.00    -0.251 F 
ENDBRANCH  27  28
ENDBRANCH  26  27
ENDBRANCH   1  26
TORSDOF 7
