REMARK SMILES O=C(NC12CC3CC(CC(C3)C1)C2)c1nn(CCCCCF)c2ccccc12
REMARK SMILES IDX 18 1 17 2 16 3 14 4 15 5 28 6 27 7 23 8 26 9 24 10 25 11
REMARK SMILES IDX 2 12 1 13 3 14 4 16 13 17 12 18 5 19 8 20 10 21 6 22 7 23
REMARK SMILES IDX 9 24 11 25 19 26 20 27 21 28 22 29
REMARK H PARENT 3 15
ROOT
ATOM      1  C   UNL     1      32.100   2.271   9.411  1.00  0.00     0.024 C 
ENDROOT
BRANCH   1   2
ATOM      2  C   UNL     1      31.457   2.778   8.168  1.00  0.00     0.145 C 
BRANCH   2   3
ATOM      3  N   UNL     1      30.059   3.136   8.320  1.00  0.00    -0.264 N 
ATOM      4  C   UNL     1      27.859   3.009   8.371  1.00  0.00     0.158 A 
ATOM      5  N   UNL     1      29.021   2.336   8.144  1.00  0.00    -0.166 NA
ATOM      6  C   UNL     1      28.256   4.272   8.699  1.00  0.00     0.033 A 
ATOM      7  C   UNL     1      27.569   5.404   9.045  1.00  0.00     0.013 A 
ATOM      8  C   UNL     1      29.634   4.361   8.669  1.00  0.00     0.069 A 
ATOM      9  C   UNL     1      28.254   6.559   9.340  1.00  0.00     0.001 A 
ATOM     10  C   UNL     1      30.325   5.517   8.964  1.00  0.00     0.028 A 
ATOM     11  C   UNL     1      29.628   6.663   9.313  1.00  0.00     0.002 A 
BRANCH   4  12
ATOM     12  C   UNL     1      26.580   2.353   8.260  1.00  0.00     0.272 C 
ATOM     13  O   UNL     1      26.630   1.079   8.184  1.00  0.00    -0.267 OA
ATOM     14  N   UNL     1      25.304   2.914   8.220  1.00  0.00    -0.345 N 
ATOM     15  H   UNL     1      25.198   3.932   8.250  1.00  0.00     0.164 HD
BRANCH  14  16
ATOM     16  C   UNL     1      24.088   2.125   8.114  1.00  0.00     0.041 C 
ATOM     17  C   UNL     1      22.924   3.108   8.065  1.00  0.00     0.032 C 
ATOM     18  C   UNL     1      23.998   1.253   9.348  1.00  0.00     0.032 C 
ATOM     19  C   UNL     1      23.998   1.268   6.908  1.00  0.00     0.032 C 
ATOM     20  C   UNL     1      21.604   2.386   8.143  1.00  0.00    -0.008 C 
ATOM     21  C   UNL     1      22.630   0.558   9.418  1.00  0.00    -0.008 C 
ATOM     22  C   UNL     1      22.652   0.551   6.963  1.00  0.00    -0.008 C 
ATOM     23  C   UNL     1      21.491   1.495   6.941  1.00  0.00     0.007 C 
ATOM     24  C   UNL     1      21.587   1.637   9.458  1.00  0.00     0.007 C 
ATOM     25  C   UNL     1      22.504  -0.312   8.186  1.00  0.00     0.007 C 
ENDBRANCH  14  16
ENDBRANCH   4  12
ENDBRANCH   2   3
ENDBRANCH   1   2
BRANCH   1  26
ATOM     26  C   UNL     1      33.538   1.903   9.250  1.00  0.00     0.005 C 
BRANCH  26  27
ATOM     27  C   UNL     1      33.808   0.834   8.246  1.00  0.00     0.034 C 
BRANCH  27  28
ATOM     28  C   UNL     1      33.140  -0.476   8.535  1.00  0.00     0.214 C 
ATOM     29  F   UNL     1      33.569  -0.972   9.767  1.00  0.00    -0.251 F 
ENDBRANCH  27  28
ENDBRANCH  26  27
ENDBRANCH   1  26
TORSDOF 7
