REMARK SMILES O=C(NC12CC3CC(CC(C3)C1)C2)c1nn(CCCCCF)c2ccccc12
REMARK SMILES IDX 18 1 17 2 16 3 14 4 15 5 28 6 27 7 23 8 26 9 24 10 25 11
REMARK SMILES IDX 2 12 1 13 3 14 4 16 13 17 12 18 5 19 8 20 10 21 6 22 7 23
REMARK SMILES IDX 9 24 11 25 19 26 20 27 21 28 22 29
REMARK H PARENT 3 15
ROOT
ATOM      1  C   UNL     1      31.417   1.987   9.312  1.00  0.00     0.024 C 
ENDROOT
BRANCH   1   2
ATOM      2  C   UNL     1      30.979   1.844   7.906  1.00  0.00     0.145 C 
BRANCH   2   3
ATOM      3  N   UNL     1      29.622   2.447   7.724  1.00  0.00    -0.264 N 
ATOM      4  C   UNL     1      27.444   2.612   7.639  1.00  0.00     0.158 A 
ATOM      5  N   UNL     1      28.492   1.788   7.874  1.00  0.00    -0.166 NA
ATOM      6  C   UNL     1      28.001   3.822   7.337  1.00  0.00     0.033 A 
ATOM      7  C   UNL     1      27.490   5.041   7.023  1.00  0.00     0.013 A 
ATOM      8  C   UNL     1      29.396   3.726   7.387  1.00  0.00     0.069 A 
ATOM      9  C   UNL     1      28.302   6.119   6.767  1.00  0.00     0.001 A 
ATOM     10  C   UNL     1      30.214   4.804   7.131  1.00  0.00     0.028 A 
ATOM     11  C   UNL     1      29.680   6.038   6.812  1.00  0.00     0.002 A 
BRANCH   4  12
ATOM     12  C   UNL     1      26.081   2.148   7.753  1.00  0.00     0.272 C 
ATOM     13  O   UNL     1      25.931   1.029   8.348  1.00  0.00    -0.267 OA
ATOM     14  N   UNL     1      24.906   2.757   7.297  1.00  0.00    -0.345 N 
ATOM     15  H   UNL     1      24.956   3.647   6.783  1.00  0.00     0.164 HD
BRANCH  14  16
ATOM     16  C   UNL     1      23.582   2.188   7.485  1.00  0.00     0.041 C 
ATOM     17  C   UNL     1      23.260   2.052   8.936  1.00  0.00     0.032 C 
ATOM     18  C   UNL     1      23.426   0.843   6.806  1.00  0.00     0.032 C 
ATOM     19  C   UNL     1      22.546   3.098   6.841  1.00  0.00     0.032 C 
ATOM     20  C   UNL     1      21.839   1.589   9.165  1.00  0.00    -0.008 C 
ATOM     21  C   UNL     1      22.051   0.326   7.066  1.00  0.00    -0.008 C 
ATOM     22  C   UNL     1      21.164   2.588   7.063  1.00  0.00    -0.008 C 
ATOM     23  C   UNL     1      20.881   2.567   8.560  1.00  0.00     0.007 C 
ATOM     24  C   UNL     1      21.751   0.203   8.532  1.00  0.00     0.007 C 
ATOM     25  C   UNL     1      20.982   1.223   6.475  1.00  0.00     0.007 C 
ENDBRANCH  14  16
ENDBRANCH   4  12
ENDBRANCH   2   3
ENDBRANCH   1   2
BRANCH   1  26
ATOM     26  C   UNL     1      32.684   1.451   9.775  1.00  0.00     0.005 C 
BRANCH  26  27
ATOM     27  C   UNL     1      34.011   1.807   9.352  1.00  0.00     0.034 C 
BRANCH  27  28
ATOM     28  C   UNL     1      34.572   1.675   8.013  1.00  0.00     0.214 C 
ATOM     29  F   UNL     1      34.048   2.356   6.976  1.00  0.00    -0.251 F 
ENDBRANCH  27  28
ENDBRANCH  26  27
ENDBRANCH   1  26
TORSDOF 7
