REMARK SMILES O=C(NC12CC3CC(CC(C3)C1)C2)c1nn(CCCCCF)c2ccccc12
REMARK SMILES IDX 18 1 17 2 16 3 14 4 15 5 28 6 27 7 23 8 26 9 24 10 25 11
REMARK SMILES IDX 2 12 1 13 3 14 4 16 13 17 12 18 5 19 8 20 10 21 6 22 7 23
REMARK SMILES IDX 9 24 11 25 19 26 20 27 21 28 22 29
REMARK H PARENT 3 15
ROOT
ATOM      1  C   UNL     1      31.325   1.559   8.096  1.00  0.00     0.024 C 
ENDROOT
BRANCH   1   2
ATOM      2  C   UNL     1      30.712   1.844   9.443  1.00  0.00     0.145 C 
BRANCH   2   3
ATOM      3  N   UNL     1      29.417   2.445   9.187  1.00  0.00    -0.264 N 
ATOM      4  C   UNL     1      27.249   2.646   8.819  1.00  0.00     0.158 A 
ATOM      5  N   UNL     1      28.290   1.784   9.054  1.00  0.00    -0.166 NA
ATOM      6  C   UNL     1      27.836   3.877   8.821  1.00  0.00     0.033 A 
ATOM      7  C   UNL     1      27.347   5.125   8.637  1.00  0.00     0.013 A 
ATOM      8  C   UNL     1      29.212   3.765   9.053  1.00  0.00     0.069 A 
ATOM      9  C   UNL     1      28.168   6.224   8.681  1.00  0.00     0.001 A 
ATOM     10  C   UNL     1      30.038   4.866   9.098  1.00  0.00     0.028 A 
ATOM     11  C   UNL     1      29.527   6.134   8.910  1.00  0.00     0.002 A 
BRANCH   4  12
ATOM     12  C   UNL     1      25.914   2.159   8.626  1.00  0.00     0.272 C 
ATOM     13  O   UNL     1      25.808   0.883   8.475  1.00  0.00    -0.267 OA
ATOM     14  N   UNL     1      24.706   2.861   8.578  1.00  0.00    -0.345 N 
ATOM     15  H   UNL     1      24.704   3.877   8.707  1.00  0.00     0.164 HD
BRANCH  14  16
ATOM     16  C   UNL     1      23.413   2.221   8.371  1.00  0.00     0.041 C 
ATOM     17  C   UNL     1      23.152   1.269   9.484  1.00  0.00     0.032 C 
ATOM     18  C   UNL     1      22.330   3.271   8.383  1.00  0.00     0.032 C 
ATOM     19  C   UNL     1      23.367   1.571   7.008  1.00  0.00     0.032 C 
ATOM     20  C   UNL     1      21.802   0.602   9.289  1.00  0.00    -0.008 C 
ATOM     21  C   UNL     1      21.003   2.624   8.143  1.00  0.00    -0.008 C 
ATOM     22  C   UNL     1      22.065   0.835   6.853  1.00  0.00    -0.008 C 
ATOM     23  C   UNL     1      21.890  -0.141   7.972  1.00  0.00     0.007 C 
ATOM     24  C   UNL     1      20.747   1.661   9.307  1.00  0.00     0.007 C 
ATOM     25  C   UNL     1      20.935   1.842   6.873  1.00  0.00     0.007 C 
ENDBRANCH  14  16
ENDBRANCH   4  12
ENDBRANCH   2   3
ENDBRANCH   1   2
BRANCH   1  26
ATOM     26  C   UNL     1      32.676   0.932   8.161  1.00  0.00     0.005 C 
BRANCH  26  27
ATOM     27  C   UNL     1      33.696   1.780   8.878  1.00  0.00     0.034 C 
BRANCH  27  28
ATOM     28  C   UNL     1      35.009   1.030   8.870  1.00  0.00     0.214 C 
ATOM     29  F   UNL     1      35.489   0.757   7.622  1.00  0.00    -0.251 F 
ENDBRANCH  27  28
ENDBRANCH  26  27
ENDBRANCH   1  26
TORSDOF 7
