REMARK SMILES C=C(C)[C@@H]1CCC(C)=C[C@H]1c1c(O)cc(CCCCC)cc1O
REMARK SMILES IDX 16 1 15 2 11 3 12 4 22 5 14 6 21 7 10 8 4 9 5 10 6 11 9 12
REMARK SMILES IDX 7 13 8 14 2 15 1 16 3 17 13 18 23 20 17 22 18 23 19 24 20 25
REMARK H PARENT 13 19 23 21
ROOT
ATOM      1  C   UNL     1      29.851  -0.192   3.744  1.00  0.00     0.036 C 
ENDROOT
BRANCH   1   2
ATOM      2  C   UNL     1      28.449   0.269   3.456  1.00  0.00    -0.041 A 
ATOM      3  C   UNL     1      25.688   0.959   3.242  1.00  0.00     0.043 A 
ATOM      4  C   UNL     1      26.117  -0.063   4.057  1.00  0.00     0.123 A 
ATOM      5  C   UNL     1      26.675   1.631   2.534  1.00  0.00     0.123 A 
ATOM      6  C   UNL     1      27.463  -0.419   4.173  1.00  0.00     0.050 A 
ATOM      7  C   UNL     1      28.041   1.267   2.659  1.00  0.00     0.050 A 
BRANCH   3   8
ATOM      8  C   UNL     1      24.248   1.310   3.168  1.00  0.00     0.056 C 
ATOM      9  C   UNL     1      23.334   0.558   4.039  1.00  0.00     0.026 C 
ATOM     10  C   UNL     1      22.114   1.452   4.422  1.00  0.00     0.013 C 
ATOM     11  C   UNL     1      22.509   2.703   5.134  1.00  0.00     0.031 C 
ATOM     12  C   UNL     1      24.127   2.799   3.284  1.00  0.00    -0.019 C 
ATOM     13  C   UNL     1      23.388   3.475   4.126  1.00  0.00    -0.077 C 
ATOM     14  C   UNL     1      23.304   4.962   4.107  1.00  0.00     0.039 C 
BRANCH   9  15
ATOM     15  C   UNL     1      22.629  -0.489   3.312  1.00  0.00    -0.076 C 
ATOM     16  C   UNL     1      22.623  -0.749   2.027  1.00  0.00     0.008 C 
ATOM     17  C   UNL     1      21.808  -1.446   4.197  1.00  0.00     0.039 C 
ENDBRANCH   9  15
ENDBRANCH   3   8
BRANCH   4  18
ATOM     18  O   UNL     1      25.259  -0.832   4.837  1.00  0.00    -0.507 OA
ATOM     19  H   UNL     1      25.500  -1.774   5.111  1.00  0.00     0.293 HD
ENDBRANCH   4  18
BRANCH   5  20
ATOM     20  O   UNL     1      26.426   2.679   1.658  1.00  0.00    -0.507 OA
ATOM     21  H   UNL     1      27.058   3.493   1.660  1.00  0.00     0.293 HD
ENDBRANCH   5  20
ENDBRANCH   1   2
BRANCH   1  22
ATOM     22  C   UNL     1      30.450   0.631   4.836  1.00  0.00     0.005 C 
BRANCH  22  23
ATOM     23  C   UNL     1      30.872   2.006   4.460  1.00  0.00     0.000 C 
BRANCH  23  24
ATOM     24  C   UNL     1      32.084   2.039   3.532  1.00  0.00    -0.003 C 
ATOM     25  C   UNL     1      33.278   1.455   4.274  1.00  0.00     0.004 C 
ENDBRANCH  23  24
ENDBRANCH  22  23
ENDBRANCH   1  22
TORSDOF 8
