REMARK SMILES C=C(C)[C@@H]1CCC(C)=C[C@H]1c1c(O)cc(CCCCC)cc1O
REMARK SMILES IDX 16 1 15 2 11 3 12 4 22 5 14 6 21 7 10 8 4 9 5 10 6 11 9 12
REMARK SMILES IDX 7 13 8 14 2 15 1 16 3 17 13 18 23 20 17 22 18 23 19 24 20 25
REMARK H PARENT 13 19 23 21
ROOT
ATOM      1  C   UNL     1      29.789   0.827   4.037  1.00  0.00     0.036 C 
ENDROOT
BRANCH   1   2
ATOM      2  C   UNL     1      28.333   0.844   3.754  1.00  0.00    -0.041 A 
ATOM      3  C   UNL     1      25.553   1.383   3.402  1.00  0.00     0.043 A 
ATOM      4  C   UNL     1      26.208   0.223   2.905  1.00  0.00     0.123 A 
ATOM      5  C   UNL     1      26.356   2.250   4.091  1.00  0.00     0.123 A 
ATOM      6  C   UNL     1      27.572  -0.026   3.083  1.00  0.00     0.050 A 
ATOM      7  C   UNL     1      27.705   1.984   4.254  1.00  0.00     0.050 A 
BRANCH   3   8
ATOM      8  C   UNL     1      24.199   1.615   3.067  1.00  0.00     0.056 C 
ATOM      9  C   UNL     1      23.055   0.863   3.546  1.00  0.00     0.026 C 
ATOM     10  C   UNL     1      21.976   0.976   2.450  1.00  0.00     0.013 C 
ATOM     11  C   UNL     1      21.615   2.424   2.206  1.00  0.00     0.031 C 
ATOM     12  C   UNL     1      23.712   3.021   3.379  1.00  0.00    -0.019 C 
ATOM     13  C   UNL     1      22.461   3.377   2.946  1.00  0.00    -0.077 C 
ATOM     14  C   UNL     1      21.977   4.726   3.319  1.00  0.00     0.039 C 
BRANCH   9  15
ATOM     15  C   UNL     1      23.166  -0.489   4.076  1.00  0.00    -0.076 C 
ATOM     16  C   UNL     1      22.606  -1.505   3.431  1.00  0.00     0.008 C 
ATOM     17  C   UNL     1      23.880  -0.671   5.391  1.00  0.00     0.039 C 
ENDBRANCH   9  15
ENDBRANCH   3   8
BRANCH   4  18
ATOM     18  O   UNL     1      25.532  -0.736   2.198  1.00  0.00    -0.507 OA
ATOM     19  H   UNL     1      25.204  -0.678   1.239  1.00  0.00     0.293 HD
ENDBRANCH   4  18
BRANCH   5  20
ATOM     20  O   UNL     1      25.940   3.439   4.689  1.00  0.00    -0.507 OA
ATOM     21  H   UNL     1      26.497   4.284   4.568  1.00  0.00     0.293 HD
ENDBRANCH   5  20
ENDBRANCH   1   2
BRANCH   1  22
ATOM     22  C   UNL     1      30.574   1.523   2.905  1.00  0.00     0.005 C 
BRANCH  22  23
ATOM     23  C   UNL     1      31.920   1.972   3.451  1.00  0.00     0.000 C 
BRANCH  23  24
ATOM     24  C   UNL     1      32.804   0.941   4.014  1.00  0.00    -0.003 C 
ATOM     25  C   UNL     1      33.255  -0.048   2.996  1.00  0.00     0.004 C 
ENDBRANCH  23  24
ENDBRANCH  22  23
ENDBRANCH   1  22
TORSDOF 8
