REMARK SMILES C=C(C)[C@@H]1CCC(C)=C[C@H]1c1c(O)cc(CCCCC)cc1O
REMARK SMILES IDX 16 1 15 2 11 3 12 4 22 5 14 6 21 7 10 8 4 9 5 10 6 11 9 12
REMARK SMILES IDX 7 13 8 14 2 15 1 16 3 17 13 18 23 20 17 22 18 23 19 24 20 25
REMARK H PARENT 13 19 23 21
ROOT
ATOM      1  C   UNL     1      29.620   1.172   5.409  1.00  0.00     0.036 C 
ENDROOT
BRANCH   1   2
ATOM      2  C   UNL     1      28.349   1.341   4.724  1.00  0.00    -0.041 A 
ATOM      3  C   UNL     1      25.686   1.311   3.776  1.00  0.00     0.043 A 
ATOM      4  C   UNL     1      26.448   2.466   3.794  1.00  0.00     0.123 A 
ATOM      5  C   UNL     1      26.254   0.124   4.231  1.00  0.00     0.123 A 
ATOM      6  C   UNL     1      27.779   2.494   4.271  1.00  0.00     0.050 A 
ATOM      7  C   UNL     1      27.550   0.181   4.681  1.00  0.00     0.050 A 
BRANCH   3   8
ATOM      8  C   UNL     1      24.177   1.416   3.511  1.00  0.00     0.056 C 
ATOM      9  C   UNL     1      23.393   0.245   3.783  1.00  0.00     0.026 C 
ATOM     10  C   UNL     1      22.425   0.601   4.971  1.00  0.00     0.013 C 
ATOM     11  C   UNL     1      21.582   1.780   4.509  1.00  0.00     0.031 C 
ATOM     12  C   UNL     1      23.812   2.656   4.334  1.00  0.00    -0.019 C 
ATOM     13  C   UNL     1      22.599   2.881   4.829  1.00  0.00    -0.077 C 
ATOM     14  C   UNL     1      22.238   4.070   5.648  1.00  0.00     0.039 C 
BRANCH   9  15
ATOM     15  C   UNL     1      22.546  -0.351   2.742  1.00  0.00    -0.076 C 
ATOM     16  C   UNL     1      21.332  -0.651   2.655  1.00  0.00     0.008 C 
ATOM     17  C   UNL     1      23.347  -0.766   1.449  1.00  0.00     0.039 C 
ENDBRANCH   9  15
ENDBRANCH   3   8
BRANCH   4  18
ATOM     18  O   UNL     1      25.995   3.716   3.364  1.00  0.00    -0.507 OA
ATOM     19  H   UNL     1      25.786   3.849   2.409  1.00  0.00     0.293 HD
ENDBRANCH   4  18
BRANCH   5  20
ATOM     20  O   UNL     1      25.644  -1.094   4.252  1.00  0.00    -0.507 OA
ATOM     21  H   UNL     1      25.745  -1.727   3.433  1.00  0.00     0.293 HD
ENDBRANCH   5  20
ENDBRANCH   1   2
BRANCH   1  22
ATOM     22  C   UNL     1      30.762   0.623   4.674  1.00  0.00     0.005 C 
BRANCH  22  23
ATOM     23  C   UNL     1      31.285   1.457   3.587  1.00  0.00     0.000 C 
BRANCH  23  24
ATOM     24  C   UNL     1      32.465   0.728   2.968  1.00  0.00    -0.003 C 
ATOM     25  C   UNL     1      33.559   0.513   3.977  1.00  0.00     0.004 C 
ENDBRANCH  23  24
ENDBRANCH  22  23
ENDBRANCH   1  22
TORSDOF 8
