REMARK SMILES C=C(C)[C@@H]1CCC(C)=C[C@H]1c1c(O)cc(CCCCC)cc1O
REMARK SMILES IDX 16 1 15 2 11 3 12 4 22 5 14 6 21 7 10 8 4 9 5 10 6 11 9 12
REMARK SMILES IDX 7 13 8 14 2 15 1 16 3 17 13 18 23 20 17 22 18 23 19 24 20 25
REMARK H PARENT 13 19 23 21
ROOT
ATOM      1  C   UNL     1      29.248   2.699   3.617  1.00  0.00     0.036 C 
ENDROOT
BRANCH   1   2
ATOM      2  C   UNL     1      27.957   2.073   3.764  1.00  0.00    -0.041 A 
ATOM      3  C   UNL     1      25.266   1.375   3.732  1.00  0.00     0.043 A 
ATOM      4  C   UNL     1      25.939   1.457   4.944  1.00  0.00     0.123 A 
ATOM      5  C   UNL     1      25.926   1.624   2.517  1.00  0.00     0.123 A 
ATOM      6  C   UNL     1      27.278   1.803   4.939  1.00  0.00     0.050 A 
ATOM      7  C   UNL     1      27.245   1.968   2.525  1.00  0.00     0.050 A 
BRANCH   3   8
ATOM      8  C   UNL     1      23.789   1.444   3.716  1.00  0.00     0.056 C 
ATOM      9  C   UNL     1      22.844   0.517   4.203  1.00  0.00     0.026 C 
ATOM     10  C   UNL     1      21.848   1.241   5.154  1.00  0.00     0.013 C 
ATOM     11  C   UNL     1      21.219   2.377   4.308  1.00  0.00     0.031 C 
ATOM     12  C   UNL     1      23.552   2.899   4.121  1.00  0.00    -0.019 C 
ATOM     13  C   UNL     1      22.367   3.401   4.401  1.00  0.00    -0.077 C 
ATOM     14  C   UNL     1      22.181   4.799   4.794  1.00  0.00     0.039 C 
BRANCH   9  15
ATOM     15  C   UNL     1      22.120  -0.378   3.257  1.00  0.00    -0.076 C 
ATOM     16  C   UNL     1      22.161  -1.720   3.525  1.00  0.00     0.008 C 
ATOM     17  C   UNL     1      21.377  -0.021   2.053  1.00  0.00     0.039 C 
ENDBRANCH   9  15
ENDBRANCH   3   8
BRANCH   4  18
ATOM     18  O   UNL     1      25.307   1.203   6.148  1.00  0.00    -0.507 OA
ATOM     19  H   UNL     1      25.222   0.220   6.378  1.00  0.00     0.293 HD
ENDBRANCH   4  18
BRANCH   5  20
ATOM     20  O   UNL     1      25.238   1.508   1.299  1.00  0.00    -0.507 OA
ATOM     21  H   UNL     1      25.183   0.566   0.899  1.00  0.00     0.293 HD
ENDBRANCH   5  20
ENDBRANCH   1   2
BRANCH   1  22
ATOM     22  C   UNL     1      30.508   2.075   3.405  1.00  0.00     0.005 C 
BRANCH  22  23
ATOM     23  C   UNL     1      31.101   1.191   4.460  1.00  0.00     0.000 C 
BRANCH  23  24
ATOM     24  C   UNL     1      32.506   0.802   3.859  1.00  0.00    -0.003 C 
ATOM     25  C   UNL     1      33.257   0.065   4.899  1.00  0.00     0.004 C 
ENDBRANCH  23  24
ENDBRANCH  22  23
ENDBRANCH   1  22
TORSDOF 8
