REMARK SMILES C=C(C)[C@@H]1CCC(C)=C[C@H]1c1c(O)cc(CCCCC)cc1O
REMARK SMILES IDX 16 1 15 2 11 3 12 4 22 5 14 6 21 7 10 8 4 9 5 10 6 11 9 12
REMARK SMILES IDX 7 13 8 14 2 15 1 16 3 17 13 18 23 20 17 22 18 23 19 24 20 25
REMARK H PARENT 13 19 23 21
ROOT
ATOM      1  C   UNL     1      29.690   0.451   3.233  1.00  0.00     0.036 C 
ENDROOT
BRANCH   1   2
ATOM      2  C   UNL     1      28.283   0.776   3.429  1.00  0.00    -0.041 A 
ATOM      3  C   UNL     1      25.487   1.050   3.608  1.00  0.00     0.043 A 
ATOM      4  C   UNL     1      26.076   0.948   2.375  1.00  0.00     0.123 A 
ATOM      5  C   UNL     1      26.342   0.993   4.655  1.00  0.00     0.123 A 
ATOM      6  C   UNL     1      27.407   0.828   2.287  1.00  0.00     0.050 A 
ATOM      7  C   UNL     1      27.743   0.848   4.681  1.00  0.00     0.050 A 
BRANCH   3   8
ATOM      8  C   UNL     1      24.026   1.260   3.772  1.00  0.00     0.056 C 
ATOM      9  C   UNL     1      23.181   0.277   4.402  1.00  0.00     0.026 C 
ATOM     10  C   UNL     1      22.533   0.709   5.671  1.00  0.00     0.013 C 
ATOM     11  C   UNL     1      21.681   1.888   5.249  1.00  0.00     0.031 C 
ATOM     12  C   UNL     1      23.779   2.737   4.219  1.00  0.00    -0.019 C 
ATOM     13  C   UNL     1      22.620   3.009   4.970  1.00  0.00    -0.077 C 
ATOM     14  C   UNL     1      22.365   4.416   5.407  1.00  0.00     0.039 C 
BRANCH   9  15
ATOM     15  C   UNL     1      22.168  -0.260   3.492  1.00  0.00    -0.076 C 
ATOM     16  C   UNL     1      21.690  -1.535   3.524  1.00  0.00     0.008 C 
ATOM     17  C   UNL     1      21.565   0.545   2.341  1.00  0.00     0.039 C 
ENDBRANCH   9  15
ENDBRANCH   3   8
BRANCH   4  18
ATOM     18  O   UNL     1      25.272   1.009   1.276  1.00  0.00    -0.507 OA
ATOM     19  H   UNL     1      25.108   0.109   0.788  1.00  0.00     0.293 HD
ENDBRANCH   4  18
BRANCH   5  20
ATOM     20  O   UNL     1      25.857   1.114   6.013  1.00  0.00    -0.507 OA
ATOM     21  H   UNL     1      25.784   0.074   6.302  1.00  0.00     0.293 HD
ENDBRANCH   5  20
ENDBRANCH   1   2
BRANCH   1  22
ATOM     22  C   UNL     1      30.344  -0.200   4.396  1.00  0.00     0.005 C 
BRANCH  22  23
ATOM     23  C   UNL     1      31.139   0.715   5.321  1.00  0.00     0.000 C 
BRANCH  23  24
ATOM     24  C   UNL     1      32.213   1.356   4.407  1.00  0.00    -0.003 C 
ATOM     25  C   UNL     1      33.291   1.957   5.258  1.00  0.00     0.004 C 
ENDBRANCH  23  24
ENDBRANCH  22  23
ENDBRANCH   1  22
TORSDOF 8
