REMARK SMILES CCCCCc1cc(O)c2c(c1)OC(C)(C)[C@@H]1CCC(C)=C[C@@H]21
REMARK SMILES IDX 4 1 3 2 2 3 1 4 5 5 6 6 7 7 12 8 8 9 11 10 10 11 13 12 23 13
REMARK SMILES IDX 14 14 22 15 17 16 20 17 18 18 19 19 15 20 16 21 21 22 9 23
REMARK H PARENT 9 24
ROOT
ATOM      1  C   UNL     1      23.092   1.177   4.711  1.00  0.00     0.005 C 
ENDROOT
BRANCH   1   2
ATOM      2  C   UNL     1      22.998   2.699   4.650  1.00  0.00     0.000 C 
BRANCH   2   3
ATOM      3  C   UNL     1      22.253   3.177   3.407  1.00  0.00    -0.003 C 
ATOM      4  C   UNL     1      22.164   4.697   3.350  1.00  0.00     0.004 C 
ENDBRANCH   2   3
ENDBRANCH   1   2
BRANCH   1   5
ATOM      5  C   UNL     1      23.840   0.690   5.959  1.00  0.00     0.036 C 
BRANCH   5   6
ATOM      6  C   UNL     1      25.275   1.133   5.943  1.00  0.00    -0.041 A 
ATOM      7  C   UNL     1      25.704   2.200   6.719  1.00  0.00     0.050 A 
ATOM      8  C   UNL     1      26.199   0.486   5.146  1.00  0.00     0.050 A 
ATOM      9  C   UNL     1      27.019   2.641   6.662  1.00  0.00     0.123 A 
ATOM     10  C   UNL     1      27.524   0.913   5.092  1.00  0.00     0.127 A 
ATOM     11  C   UNL     1      27.944   2.038   5.806  1.00  0.00     0.043 A 
ATOM     12  O   UNL     1      28.346   0.159   4.316  1.00  0.00    -0.487 OA
ATOM     13  C   UNL     1      29.370   2.517   5.677  1.00  0.00     0.056 C 
ATOM     14  C   UNL     1      29.759   0.331   4.473  1.00  0.00     0.107 C 
ATOM     15  C   UNL     1      29.520   4.005   5.505  1.00  0.00    -0.019 C 
ATOM     16  C   UNL     1      30.042   1.839   4.478  1.00  0.00     0.044 C 
ATOM     17  C   UNL     1      30.519   4.558   4.833  1.00  0.00    -0.077 C 
ATOM     18  C   UNL     1      31.508   2.261   4.460  1.00  0.00     0.013 C 
ATOM     19  C   UNL     1      31.582   3.753   4.134  1.00  0.00     0.031 C 
ATOM     20  C   UNL     1      30.215  -0.378   5.752  1.00  0.00     0.056 C 
ATOM     21  C   UNL     1      30.370  -0.360   3.252  1.00  0.00     0.056 C 
ATOM     22  C   UNL     1      30.658   6.045   4.689  1.00  0.00     0.039 C 
BRANCH   9  23
ATOM     23  O   UNL     1      27.428   3.669   7.466  1.00  0.00    -0.507 OA
ATOM     24  H   UNL     1      26.685   3.954   8.011  1.00  0.00     0.293 HD
ENDBRANCH   9  23
ENDBRANCH   5   6
ENDBRANCH   1   5
TORSDOF 5
