REMARK SMILES C=C(C)[C@@H]1CCC(C)=C[C@H]1c1c(O)cc(CCCCC)cc1O
REMARK SMILES IDX 16 1 17 2 18 3 19 4 20 5 15 6 14 7 21 8 12 9 22 10 11 11
REMARK SMILES IDX 13 12 23 14 10 16 9 17 4 18 7 19 5 20 6 21 8 22 2 23 1 24
REMARK SMILES IDX 3 25
REMARK H PARENT 13 13 23 15
ROOT
ATOM      1  C   UNL     1      24.625   3.874   6.594  1.00  0.00     0.036 C 
ENDROOT
BRANCH   1   2
ATOM      2  C   UNL     1      23.850   3.110   5.511  1.00  0.00     0.005 C 
BRANCH   2   3
ATOM      3  C   UNL     1      23.783   1.613   5.796  1.00  0.00     0.000 C 
BRANCH   3   4
ATOM      4  C   UNL     1      23.030   0.854   4.707  1.00  0.00    -0.003 C 
ATOM      5  C   UNL     1      23.000  -0.645   4.981  1.00  0.00     0.004 C 
ENDBRANCH   3   4
ENDBRANCH   2   3
ENDBRANCH   1   2
BRANCH   1   6
ATOM      6  C   UNL     1      26.046   3.397   6.670  1.00  0.00    -0.041 A 
ATOM      7  C   UNL     1      26.955   3.756   5.690  1.00  0.00     0.050 A 
ATOM      8  C   UNL     1      26.460   2.548   7.685  1.00  0.00     0.050 A 
ATOM      9  C   UNL     1      28.251   3.253   5.701  1.00  0.00     0.123 A 
ATOM     10  C   UNL     1      27.750   2.041   7.703  1.00  0.00     0.123 A 
ATOM     11  C   UNL     1      28.666   2.376   6.705  1.00  0.00     0.043 A 
BRANCH   9  12
ATOM     12  O   UNL     1      29.076   3.639   4.692  1.00  0.00    -0.507 OA
ATOM     13  H   UNL     1      29.973   3.315   4.876  1.00  0.00     0.293 HD
ENDBRANCH   9  12
BRANCH  10  14
ATOM     14  O   UNL     1      28.157   1.196   8.698  1.00  0.00    -0.507 OA
ATOM     15  H   UNL     1      27.416   1.037   9.294  1.00  0.00     0.293 HD
ENDBRANCH  10  14
BRANCH  11  16
ATOM     16  C   UNL     1      30.022   1.711   6.679  1.00  0.00     0.056 C 
ATOM     17  C   UNL     1      31.139   2.684   6.427  1.00  0.00    -0.019 C 
ATOM     18  C   UNL     1      30.020   0.578   5.624  1.00  0.00     0.026 C 
ATOM     19  C   UNL     1      32.179   2.457   5.631  1.00  0.00    -0.077 C 
ATOM     20  C   UNL     1      31.450   0.065   5.458  1.00  0.00     0.013 C 
ATOM     21  C   UNL     1      32.326   1.168   4.870  1.00  0.00     0.031 C 
ATOM     22  C   UNL     1      33.265   3.466   5.418  1.00  0.00     0.039 C 
BRANCH  18  23
ATOM     23  C   UNL     1      29.025  -0.488   6.008  1.00  0.00    -0.076 C 
ATOM     24  C   UNL     1      27.817  -0.510   5.465  1.00  0.00     0.008 C 
ATOM     25  C   UNL     1      29.438  -1.480   7.051  1.00  0.00     0.039 C 
ENDBRANCH  18  23
ENDBRANCH  11  16
ENDBRANCH   1   6
TORSDOF 8
