REMARK SMILES C[C@]12CCC(=O)C[C@@H]1CC[C@@H]1[C@@H]2CC[C@]2(C)[C@@H](O)CC[C@@]12C
REMARK SMILES IDX 1 1 2 2 3 3 4 4 5 5 6 6 7 7 8 8 9 9 10 10 11 11 12 12 13 13
REMARK SMILES IDX 14 14 15 15 21 16 20 17 19 18 17 19 22 20 16 21 18 22
REMARK H PARENT 18 23
ROOT
ATOM      1  C   UNL     1      25.535   1.544   3.403  1.00  0.00     0.012 C 
ATOM      2  C   UNL     1      25.502   1.938   4.884  1.00  0.00    -0.026 C 
ATOM      3  C   UNL     1      24.657   0.909   5.658  1.00  0.00     0.015 C 
ATOM      4  C   UNL     1      23.182   0.909   5.248  1.00  0.00     0.076 C 
ATOM      5  C   UNL     1      22.567   2.283   5.340  1.00  0.00     0.133 C 
ATOM      6  O   UNL     1      21.519   2.499   5.897  1.00  0.00    -0.300 OA
ATOM      7  C   UNL     1      23.377   3.361   4.666  1.00  0.00     0.079 C 
ATOM      8  C   UNL     1      24.843   3.316   5.113  1.00  0.00     0.002 C 
ATOM      9  C   UNL     1      25.645   4.444   4.468  1.00  0.00     0.005 C 
ATOM     10  C   UNL     1      27.038   4.491   5.083  1.00  0.00     0.005 C 
ATOM     11  C   UNL     1      27.759   3.157   4.883  1.00  0.00    -0.001 C 
ATOM     12  C   UNL     1      26.932   2.005   5.500  1.00  0.00    -0.001 C 
ATOM     13  C   UNL     1      27.656   0.646   5.442  1.00  0.00     0.005 C 
ATOM     14  C   UNL     1      29.130   0.685   5.866  1.00  0.00     0.010 C 
ATOM     15  C   UNL     1      29.863   1.794   5.121  1.00  0.00    -0.001 C 
ATOM     16  C   UNL     1      29.191   3.152   5.448  1.00  0.00    -0.022 C 
ATOM     17  C   UNL     1      30.180   4.143   4.814  1.00  0.00     0.010 C 
ATOM     18  C   UNL     1      31.564   3.530   5.103  1.00  0.00     0.033 C 
ATOM     19  C   UNL     1      31.330   2.060   5.541  1.00  0.00     0.121 C 
ATOM     20  C   UNL     1      29.174   3.462   6.955  1.00  0.00     0.012 C 
ATOM     21  C   UNL     1      29.883   1.450   3.622  1.00  0.00     0.015 C 
ENDROOT
BRANCH  19  22
ATOM     22  O   UNL     1      32.285   1.164   5.039  1.00  0.00    -0.393 OA
ATOM     23  H   UNL     1      32.295   1.228   4.077  1.00  0.00     0.210 HD
ENDBRANCH  19  22
TORSDOF 1
